LAMMPS data file via write_data, version 22 Jul 2025, timestep = 100000, units = metal

6178 atoms
3 atom types

-0.0030071753146652448 40.55300717531471 xlo xhi
-0.25317179201998513 40.80317179201939 ylo yhi
-0.0924810406294411 40.65248104062945 zlo zhi

Masses

1 12.0107
2 28.0855
3 132.90545

Atoms # atomic

5258 1 1.6395799178643369 0.0504930620678369 2.820593140627633 0 0 0
5261 2 1.7041491046221802 0.09473695198268647 0.9375064101398762 0 0 0
5266 1 2.6690221753344 1.6160785846890544 0.2060393154032109 0 0 0
5949 2 9.345277159425107 7.906998266541333 8.799662140605768 0 0 0
5265 1 5.412190467828294 0.2956250152454652 0.30203457329530575 0 0 0
5462 2 4.4229671351113 1.7588095179304275 0.9238673216330886 0 0 0
5465 1 4.335243361006176 1.753057291977122 2.810071608759984 0 0 0
5406 1 7.039117604385716 0.22898373785143838 2.823786473616079 0 0 0
5416 1 9.652732189010909 1.8195381082499025 2.9198012864223006 0 0 0
5469 2 7.129734898541449 0.3266217241254468 0.9217552193706277 0 0 0
5472 2 9.771453584239385 1.8843956597857294 1.0956643667772155 0 0 0
5473 1 8.04647373503455 1.8985084283647673 0.4283260997669161 0 0 0
5950 1 7.621802507568188 7.817595695444455 8.066914960343258 0 0 0
5314 1 0.08402669858113601 3.153261736921779 0.020705883981074185 0 0 0
5458 1 1.6886240264392143 3.2208264854546096 2.594000046096606 0 0 0
5520 2 1.7322422664990946 3.1644875300548185 0.774102416249678 0 0 0
5519 1 1.7161350831398292 6.392025545141343 2.588061750448856 0 0 0
5522 2 1.8613335430888653 6.293906812458994 0.7230314057655487 0 0 0
5524 1 2.7070007206226583 4.704966410482539 0.21628799894056835 0 0 0
5466 1 5.321067987279323 3.3464814526448388 0.3078885944032289 0 0 0
5468 1 4.378144023062377 4.812066553608197 2.7868181426566423 0 0 0
5523 2 4.385945068527676 4.844662505820423 0.872170406366882 0 0 0
5526 1 5.3637794504737855 6.42985030278951 0.3764763571170133 0 0 0
5467 1 7.040755801458468 3.3385734704182806 2.9509766319003305 0 0 0
5471 2 7.070097465046391 3.3913399862154745 1.0498770710606873 0 0 0
5476 1 7.979085559577971 4.950996818664272 0.5730346092129055 0 0 0
5701 1 6.910881209385871 6.451427919377307 3.0172271450625208 0 0 0
5705 2 9.795609693199191 4.996139393930414 1.2172712330506357 0 0 0
5708 1 9.62481499326619 4.910138979415107 3.0613142648923604 0 0 0
5764 2 7.083704660214569 6.468579380187058 1.1443369338255753 0 0 0
5527 1 2.7215972637301142 7.856557746675761 0.19868933009727563 0 0 0
5754 1 1.725711902940894 9.555294270696237 2.313176466438996 0 0 0
5809 2 1.6352121210057897 9.282972768033671 0.3487631872333731 0 0 0
5751 2 1.2252463718976396 7.975354256915507 3.2203472900596077 0 0 0
5758 2 3.3299830508239836 9.507840324819135 3.3878696817714844 0 0 0
5757 2 4.3990889862129645 7.947186394542929 0.9633054219765751 0 0 0
5760 1 4.269770865451965 7.908712150097935 2.8561574145707023 0 0 0
5761 1 5.288267530428133 9.623169698377659 0.4349516872087845 0 0 0
5762 1 6.908497760429349 9.59663647833952 2.9406976379735483 0 0 0
5711 1 9.552153384891191 8.029659010715797 3.104050502571115 0 0 0
5766 2 6.968151927830443 9.654576150424669 1.075305277372586 0 0 0
5767 2 9.697152768252266 8.106827019881537 1.2339341517720617 0 0 0
5768 1 7.901006509539084 8.119686161987595 0.5574020151354565 0 0 0
5456 2 0.7214991348732733 1.9287829390315543 3.5342414661754695 0 0 0
3964 2 0.6927444605189783 -0.08885884632340782 5.739159373877131 0 0 0
5457 2 2.5012071525725594 1.6270628209982412 6.016763041335608 0 0 0
3966 1 0.47574852835177955 0.0027617109822249243 3.870000363060924 0 0 0
5461 2 3.458319097191674 0.23464459963726278 3.3184819004244352 0 0 0
5399 1 3.4877044792013425 0.247702650561025 5.159184031286896 0 0 0
5403 2 5.127224869615844 0.27523852887137984 6.034408944307367 0 0 0
5408 1 6.107011173579334 1.7841752585949835 5.397713674202647 0 0 0
5464 2 6.118983273710672 1.7946202567230929 3.5229232102811854 0 0 0
5407 1 8.712074907504132 0.3538153562080627 5.446016155328505 0 0 0
5411 2 8.7877408887083 0.2863757199654076 3.59236963395869 0 0 0
5635 2 7.779728853965786 1.823192626568895 6.145307284433876 0 0 0
5691 2 2.242928318462634 4.660356677525476 5.5321269655505985 0 0 0
5693 1 3.2402271214433345 6.25817314864273 5.219593246922732 0 0 0
5948 2 7.254590033194778 9.639912761179183 9.805465252465826 0 0 0
5696 2 5.069751878834627 3.1932948716173404 6.064255317853007 0 0 0
5756 2 3.4105953248666814 6.299417357219262 3.360287696523763 0 0 0
5459 1 3.3764849610095258 3.2621051233071165 5.218170466398857 0 0 0
5463 2 3.3710361400567526 3.283951283799846 3.311614782734241 0 0 0
5697 2 6.057195053535879 4.838053165371359 3.5500839404585562 0 0 0
5698 2 4.86887154788436 6.339099370635143 6.104230014100756 0 0 0
5700 1 5.939339843801338 4.843490130604825 5.493291938905355 0 0 0
5639 1 8.702163061245571 3.329578108042551 5.565172785837556 0 0 0
5699 2 7.692180837650862 4.857712652940986 6.144606654297873 0 0 0
5702 1 8.540215413420823 6.382454323568452 5.543041150545427 0 0 0
5704 2 8.751103265624609 3.3721156863777435 3.6320224261263583 0 0 0
5706 2 8.707316398483751 6.478047736490768 3.70133737075383 0 0 0
1230 1 0.21533191799540083 8.868669395734692 4.786495672601018 0 0 0
5752 2 2.256345218376439 7.913898359127133 5.515534116073664 0 0 0
5753 1 0.5280113794002304 8.241578078255362 6.2026373940376835 0 0 0
5755 1 3.156418033471781 9.427193790629689 5.234178471222602 0 0 0
5703 1 5.866590946061155 7.919039699586591 5.459126267743936 0 0 0
5759 2 5.960830100917676 8.019866272489063 3.572740799910691 0 0 0
5987 2 4.985299612137129 9.47477959166808 5.9115038577117 0 0 0
5947 2 7.661234807659096 7.970571816049448 6.122708558465275 0 0 0
5951 1 8.546544499497427 9.509866289671631 5.547593406717879 0 0 0
5993 2 8.639501977958114 9.639477902040325 3.7098053325803226 0 0 0
3694 1 1.2036042808784035 2.0559014507854636 9.124246443222216 0 0 0
3697 2 2.604571584887147 0.9807846340040429 8.32883429780927 0 0 0
3698 1 4.5019549666369265 1.550223430375703 8.60359332781054 0 0 0
5400 1 5.155878905790168 0.18930429648093372 7.99605537987989 0 0 0
5632 1 4.920966402248734 2.9338671839664507 7.935707177595935 0 0 0
5634 2 7.065168642963656 0.15065910067865065 8.453296996130177 0 0 0
5637 2 9.514716987298664 1.815657932323612 8.74354081020674 0 0 0
5638 1 7.775365766841499 1.822375181559925 7.997601183342193 0 0 0
3928 1 1.0131159080279513 3.970097168339118 6.672857073773782 0 0 0
3926 2 1.362798933121919 3.9102197567525816 8.455929078213405 0 0 0
5692 2 3.949265966822165 4.557247268277324 8.606628123565873 0 0 0
5694 1 4.924585400135953 6.250158353160329 7.933854416902147 0 0 0
5946 2 6.604318975799596 6.377191134009861 8.630645647229692 0 0 0
5636 2 6.668437068818459 3.2070991385766248 8.565941221225769 0 0 0
5641 1 7.502567255050847 4.843156421020508 8.013536119341053 0 0 0
5897 2 9.304832746341406 4.817640551220837 8.744210663529529 0 0 0
6176 3 2.2604184224724104 7.184042587006531 8.435082241450678 0 0 0
1931 2 0.4409831857140164 9.384825176982234 9.832750116736417 0 0 0
1233 2 0.2032862553932399 9.819791722159712 7.214408978106601 0 0 0
5944 2 4.9295986418663515 8.234026511730546 8.729657964549611 0 0 0
5945 1 4.434516712616 9.63526063257144 7.626213463300203 0 0 0
5257 1 0.19424378599081016 0.13492516568055482 -0.02475704654841479 0 0 0
3878 1 0.08409720053300335 4.923769494964463 9.308035364750765 0 0 0
5518 1 0.1173128279753115 6.289366113439242 0.1758035975918506 0 0 0
3642 1 3.0819911372914004 2.701490394930261 11.410742240109139 0 0 0
3691 2 1.3244651869601425 2.058427007443908 11.000905397241096 0 0 0
3692 1 1.1053256192321905 0.2872151965425142 11.56965420084381 0 0 0
3638 2 3.2954276373540528 2.822938751871455 13.42697208578097 0 0 0
3688 2 1.327502218048485 0.37592842672906024 13.498196978831581 0 0 0
3376 2 6.288543528493756 2.325646774186011 13.152854677503637 0 0 0
3377 1 6.223935953538463 2.0260604083110096 11.105806294348644 0 0 0
3696 2 4.440273998947248 1.5893055895196373 10.549668630637472 0 0 0
1923 2 4.58139200947717 9.99882744682523 11.14110750115634 0 0 0
5595 2 7.628669170441826 0.830624764800109 10.651862605837517 0 0 0
5600 1 9.213900193049561 1.8164273411504295 10.620084494082937 0 0 0
5848 1 7.969391890977076 3.096309339617356 13.035649275097876 0 0 0
3423 2 4.3685376872078425 -0.1683641036838801 13.192358861802896 0 0 0
3643 1 1.9891205104058416 5.546187065932593 11.563464781829012 0 0 0
3875 2 0.29184739229274337 4.895464974255399 11.201200540585505 0 0 0
3645 2 3.304870888919279 4.498070882148742 10.909098480238248 0 0 0
1604 2 4.834260959260136 5.924768420214281 12.648228709510791 0 0 0
5894 2 5.544572398220166 4.69820705729186 10.601823157343059 0 0 0
5895 1 6.473409429368506 6.265512043039624 10.552630683547733 0 0 0
5633 1 6.659927475214083 3.250281001700989 10.445702869178632 0 0 0
5896 2 8.330714487593333 3.4025637827764412 11.329584178146536 0 0 0
5898 2 8.253015188801271 6.269453136429648 11.253918302091492 0 0 0
5900 1 9.203600524671243 4.8217747503076795 10.654833488547377 0 0 0
1610 2 2.712429654553529 7.431138287956772 11.317287368091137 0 0 0
1611 1 1.3447842159077925 8.728729157706988 11.335573926782795 0 0 0
1607 1 3.407084294399513 7.127080162867453 13.038055720959134 0 0 0
1606 1 5.63291330274112 7.218372533780268 11.282750416802212 0 0 0
1608 1 4.51782901826403 8.080153238838696 10.519594244653387 0 0 0
1609 1 5.297870229351389 9.530451800687748 12.845277718986889 0 0 0
1605 2 6.6145281890925585 8.3311302123141 12.46949846634608 0 0 0
3426 1 4.195829308665771 -0.1269931677004457 11.264665817931323 0 0 0
1602 1 8.024802377111854 9.014178606460668 11.418716530840454 0 0 0
5903 1 9.008800433259061 7.875907322484866 10.641032210960745 0 0 0
3365 1 1.933144974937824 2.10167418479422 16.77339440068951 0 0 0
3369 2 3.2341846088056116 1.033639727264482 15.937112065912675 0 0 0
3374 1 3.0476713610022106 0.9488813020399998 14.001908402039696 0 0 0
3630 2 0.26047941965465343 1.4689437035502373 16.22212177730616 0 0 0
1637 1 10.09637848408245 9.810598435614219 19.45831209320346 0 0 0
3372 1 6.048161138167596 0.459261903157536 13.7629656541608 0 0 0
3368 2 6.284865295882853 0.4082323351408922 15.579383832520003 0 0 0
3371 1 4.9602891064971875 1.4783893715568563 16.452696784107378 0 0 0
3097 1 7.963520884862924 1.02180577656706 15.784470203734948 0 0 0
3100 2 9.350356376907964 -0.004278416778412465 15.045089406989122 0 0 0
3375 2 7.690843147469802 2.9695522934999765 15.511909940915967 0 0 0
3639 2 0.2183324230669295 3.201309606428901 13.604567894903 0 0 0
1419 1 2.8845450320978303 5.724656345809245 15.470754863886743 0 0 0
3637 2 2.0271564367163353 4.01244114950483 16.062822665426413 0 0 0
3640 2 2.064203371956179 5.8873261431145805 13.801039999329262 0 0 0
3641 1 1.8947746763261182 3.8493526176897026 14.058030135205554 0 0 0
3597 1 0.5712767384794624 4.788615615726196 16.84829363055356 0 0 0
3370 2 5.267142627997417 3.2490766129365967 15.871814233343779 0 0 0
1379 1 5.544091346149901 5.151516409173261 14.050627384733406 0 0 0
3373 1 5.035263690689717 3.689425434201234 13.988835375332693 0 0 0
1416 1 6.737095096457051 6.326785952074868 16.877688086054285 0 0 0
5850 2 9.578827755116562 3.1321246240327567 13.97324249247696 0 0 0
1378 1 9.388076296574738 6.04645514647176 15.63418891617396 0 0 0
1413 2 8.117157165307443 5.050476940256673 16.631937105175968 0 0 0
1653 1 1.7984743652272845 8.375912394935602 16.608544609360123 0 0 0
1654 1 2.4894789055199 9.714399277965635 14.012543529427685 0 0 0
1656 2 1.0770963004635852 8.775397944685443 14.964999923781724 0 0 0
1658 1 0.713289532519146 7.192421542461839 13.97907202173762 0 0 0
1649 2 3.3591875525102712 7.119050677660285 16.43317436872001 0 0 0
1648 2 6.132932313003142 6.716427203717653 15.162741267714337 0 0 0
1650 2 5.230281070858389 9.623006669797906 16.43158376268249 0 0 0
1651 2 4.007777553716571 8.602244771136508 13.808201933350851 0 0 0
1652 1 4.657296907222668 8.078835709608226 15.492955692045701 0 0 0
1598 2 8.78363004759497 6.602657703158148 13.888912428746266 0 0 0
1644 1 8.7260474205556 8.711106332958868 16.84570299985976 0 0 0
1601 1 7.412355156607959 7.801672831461205 14.108200126335163 0 0 0
1643 2 8.077784679998002 9.280009952024544 15.093724349665187 0 0 0
1417 1 8.058556051166628 7.415305719556523 19.499403593532193 0 0 0
3326 1 0.7220649903087014 3.014543814666352 19.298121654367606 0 0 0
3362 2 2.2848491474265566 2.1171341198515825 18.65480714783401 0 0 0
3363 1 1.9343652059981051 0.24435245509934425 19.243379735948146 0 0 0
3325 1 4.115788061220746 3.0147708506957125 18.663956841674572 0 0 0
3367 2 5.271904342524234 1.6154277039071578 18.336706331515764 0 0 0
1420 1 3.963352900360599 6.72799317754082 18.18372153004439 0 0 0
3050 1 10.012251187694456 1.730563723628468 17.588691453179376 0 0 0
3051 1 6.994099044711089 2.2003682561617595 18.50843279575154 0 0 0
3094 2 8.253513741422896 1.0575959472464844 17.74688124757576 0 0 0
1458 2 2.6056836871294355 5.885541545246231 19.233398141972387 0 0 0
3595 2 0.7007373414758971 4.707706901674092 18.656111864605354 0 0 0
1415 1 6.096249096669447 4.937596643351497 19.540459610538303 0 0 0
1418 2 5.3004827715432095 5.473308694883876 17.94126228729399 0 0 0
3327 1 4.469709990260671 3.9142692968669213 17.5183611292815 0 0 0
1704 2 4.47475658849269 8.203037897900204 19.020830757510424 0 0 0
1411 2 7.513441503999441 3.7747363192918693 19.204281595158573 0 0 0
1412 2 9.444291667110127 6.140624157459307 19.237401369244306 0 0 0
1414 1 8.833436250933978 4.6379795513161906 18.22812879788872 0 0 0
1461 1 1.1958347482110834 7.143615916441167 19.454086022752684 0 0 0
1708 1 3.1167158592367024 9.464679754416396 19.329956234449376 0 0 0
1712 2 0.45159823036945307 7.528556670742313 17.640142897001585 0 0 0
1707 2 2.3607292444116195 9.948774729847527 17.629982127851118 0 0 0
1641 2 7.299418492719409 7.853463127642455 17.821709750512532 0 0 0
1645 1 5.861194046627865 9.06328112885244 18.089495658752853 0 0 0
3634 1 0.10989003340275778 1.4723852927074854 14.366906735848028 0 0 0
3089 1 4.883403542648611 -0.162950334141121 18.875513827895887 0 0 0
1640 2 10.067641543919837 7.487632630914102 16.66064234507117 0 0 0
3644 1 0.051405474077782246 3.12973748253747 11.77397471619121 0 0 0
3320 1 0.7135768831106055 1.3751976862772184 21.906227276001673 0 0 0
3324 2 0.7782891641026749 3.028207712662877 21.136421549793646 0 0 0
3359 2 2.0483864723559937 0.36786705211875254 21.103278507058647 0 0 0
3048 1 3.7694424758584235 0.8335310384742662 21.620514579367477 0 0 0
3045 2 3.7485120271261336 0.7533071598663972 23.400143001362345 0 0 0
3086 2 5.1210613916448615 -0.08006004629480847 20.815274593313557 0 0 0
3044 2 6.92971672385439 0.48237164435988555 23.186077269217115 0 0 0
3047 1 6.845337458832522 0.5698828141429769 21.229372553027773 0 0 0
1300 1 9.623410909662036 1.6346506869574597 23.032667909964267 0 0 0
3049 2 7.0538750393131116 2.4014155843848983 21.70236560527982 0 0 0
2847 1 8.217801569616574 1.8883298664683486 23.292399669792623 0 0 0
2852 1 9.84861587867687 -0.06824614781569743 20.601917370931556 0 0 0
1456 2 2.264023336674795 4.459939172945712 22.154078822915967 0 0 0
1460 1 0.5964428904920795 5.525405194769628 22.015603078399746 0 0 0
1320 1 3.0995163247259145 3.5269092043674526 23.652001055009563 0 0 0
1459 1 3.3444311636426716 5.318044198579552 20.88060159159977 0 0 0
3323 2 4.894192872981987 3.033769668309749 23.739687392159162 0 0 0
1318 1 5.585771583385852 3.5870031745638675 22.09515284053688 0 0 0
1448 2 6.090227735987673 5.185976656162788 23.095768088823018 0 0 0
1452 1 4.630243223340576 6.311011459075212 23.47801822436285 0 0 0
1450 2 6.673493777649313 6.5025579304051675 20.399878647558474 0 0 0
1303 1 8.270030203591876 3.4342063595863066 20.834208614209853 0 0 0
1315 1 9.466262506798753 4.4737398126104395 23.595149513016185 0 0 0
1447 2 8.895715710196916 4.864796030052573 21.830651705205913 0 0 0
1451 1 7.386525910764687 6.050297573285608 22.128455507677977 0 0 0
1462 1 2.4820157672350733 7.967609825685595 22.037093758542348 0 0 0
1494 2 1.1079299478329332 7.103930930470626 23.012658708154593 0 0 0
1709 1 0.3564800167730548 9.690167083162244 20.497360597732055 0 0 0
1759 2 3.033766985259971 9.571365555065508 22.84799252603908 0 0 0
1453 1 5.229672985672182 7.7806752662070044 20.7352351212035 0 0 0
1454 1 6.570724844314008 8.759899464455257 23.424251326519986 0 0 0
1457 2 4.003851367433555 6.813801020397878 21.78798972251758 0 0 0
1697 2 5.851673345846674 9.27482450509419 21.616194288982417 0 0 0
1696 2 8.676443578754952 8.993215218759863 20.40011623370118 0 0 0
1689 2 9.970924673290117 9.99662882520373 23.019572905313016 0 0 0
1445 1 9.362128685469042 8.443474459152375 22.05027223003708 0 0 0
1449 2 8.040290512402693 7.5234458301297495 23.044258243476733 0 0 0
3317 2 0.8961348261575461 1.4099569366084304 23.707570603477087 0 0 0
3038 2 2.4107886104719145 2.020520513222975 26.063714366408405 0 0 0
3039 1 2.5791111633889114 0.2162747697951044 26.680812132253457 0 0 0
3041 1 2.6330845219178487 2.0503269061213567 24.16138000797328 0 0 0
3046 1 5.4494948659399824 1.3031946104331724 23.931079196574498 0 0 0
6177 3 6.853005858570942 1.5683450470381524 26.049018141149897 0 0 0
2845 1 9.682831784141644 0.15566294359772392 25.882045257306974 0 1 0
1314 1 9.000838557498236 3.216594857579433 26.035978021485832 0 0 0
1491 2 3.205741349753 5.36953639489307 24.44778977621047 0 0 0
1492 2 0.30992855592778107 5.853834964172118 25.6401146572663 0 0 0
1495 1 1.767126335347764 6.654175436721888 24.751621901866507 0 0 0
1331 2 5.380380828174448 4.06535468602641 26.047235478291345 0 0 0
1334 1 3.7451502331382036 5.125797560420844 26.243060267016954 0 0 0
1319 1 6.714125868186715 4.600341072125909 24.826013470620197 0 0 0
1317 2 8.171671546350874 3.511310140784558 24.436184049711567 0 0 0
1483 2 7.271960889382496 6.243088398947366 25.68498629770177 0 0 0
1323 2 9.480318362036936 4.675822192756628 27.136589179193273 0 0 0
1327 1 9.11979907400041 6.882239001093389 29.938715291708537 0 0 0
1479 1 9.87153656496539 8.079361205069251 27.333953520974344 0 0 0
1493 2 2.3476827909655147 8.251309650723478 25.57807238821459 0 0 0
1498 1 0.9267244952348168 9.48301353340933 25.861496630166474 0 0 0
1484 2 4.442172207553383 6.670083488169845 27.101896169717612 0 0 0
1485 2 6.389312245139508 8.93110913854871 26.94590857677869 0 0 0
1486 2 5.1565878150629585 7.901731078145887 24.30364442757132 0 0 0
1487 1 5.832830589022208 7.492800854119226 25.993601558223144 0 0 0
1489 1 3.705891018224637 9.037615194315947 24.510486283453563 0 0 0
1444 1 8.699291542015546 7.058860263846612 24.79712282007345 0 0 0
1478 2 9.271813718025419 8.651912592776977 25.71745641103237 0 0 0
1481 1 7.857992629120591 9.831079075260357 25.917365541698413 0 0 0
1346 2 1.810844131071081 2.8434001894607364 29.793050750106 0 0 0
3013 1 1.4145760495702235 1.2333890600260522 29.176202834627862 0 0 0
3035 2 2.726402436187445 0.12411221625151628 28.616030511350758 0 0 0
1329 2 4.4854373237576075 2.4724489680611272 28.64139392578318 0 0 0
2819 1 4.392520993411055 0.583572148307653 29.25168195594686 0 0 0
1328 2 6.963611826328388 2.1359700914253863 29.14715374678805 0 0 0
5179 1 7.628282818284425 0.5458177345192806 28.489285031699204 0 0 0
5183 2 9.53525875672 0.7700376849830688 29.268670723403073 0 0 0
1336 2 2.4186428313218573 4.124976890285014 27.21099790619852 0 0 0
1333 1 3.1761638567544948 3.748800211865894 28.849030205836744 0 0 0
1337 1 0.9650353377542646 5.38415760680677 27.320469321966407 0 0 0
1344 1 2.319091807210694 6.373715962772405 30.031099940383427 0 0 0
1349 1 0.40285701199735574 4.021676104411698 29.968807154989772 0 0 0
1332 1 6.011861915689785 3.3855150961715452 27.742285197349357 0 0 0
1330 2 6.552700344174583 4.968050757883873 28.564163081944915 0 0 0
1335 1 5.036001327330643 6.14531022050277 28.708624617954975 0 0 0
1341 2 3.7435556806805805 5.3045539908928 29.765897185290935 0 0 0
1322 2 8.7349706726087 3.66791428923619 29.79288366779679 0 0 0
1325 1 7.124131747807185 4.582762839630124 30.27146647234564 0 0 0
1326 1 7.9306409451325015 5.742037156566368 27.456991343835664 0 0 0
1531 1 0.07586737608943458 8.211164253589622 28.559336126859165 0 0 0
1488 1 2.998816966618432 7.842352494233684 27.33797058804329 0 0 0
1527 2 1.5362694065676488 6.966118077718213 28.314891782778876 0 0 0
1529 2 0.6976455290693565 9.72549140864689 29.511171915383088 0 0 0
1523 1 4.254579908188223 8.836774734765612 29.986848607794965 0 0 0
1519 2 5.650480193047153 7.620562171577398 29.645455507866075 0 0 0
1522 2 3.5745255304139905 9.377272908798925 28.29142991982673 0 0 0
1476 2 8.464502495668263 7.286391740307487 28.30737871669533 0 0 0
1480 1 7.037425095377121 8.473318817240914 28.643493274648687 0 0 0
1455 2 4.659576609858044 3.9700030793386154 20.429837169366667 0 0 0
1760 2 0.20756104279736567 9.9573832406431 24.144525447701206 0 0 0
1514 2 7.714477219768303 9.946089133933391 29.554289740413736 0 0 0
1705 2 1.8354368852226883 8.566541255680528 20.42288831380673 0 0 0
5174 1 2.963094039672873 1.8372477831903364 33.357275564744036 0 0 0
5201 2 2.641125925172317 1.3019146917075026 31.510895823324947 0 0 0
5165 1 0.7563879811932037 -0.13241736889660904 33.26389996230433 0 0 0
5540 1 10.008720278568624 5.1506732964704804 36.339912463346515 0 0 0
5172 1 4.127604114983831 0.2657339060173924 30.77272633619495 0 0 0
5173 1 5.698557964229819 0.30212694227565734 33.52485449467919 0 0 0
5176 2 5.83585926764108 0.303050465958396 31.619222763575788 0 0 0
5181 1 6.65912443595971 1.8248734823698867 31.026450001363305 0 0 0
5180 1 9.432215959420486 0.5141220835890062 31.155074090597413 0 0 0
5332 2 8.387003719367634 1.9200794173590954 31.7159015291811 0 0 0
5335 1 8.400993961024732 1.947167221661602 33.63519977377499 0 0 0
1343 1 1.959292153211138 4.904152416587109 32.790532047064744 0 0 0
1347 2 0.9799791912220356 5.426848296225668 31.083316979983046 0 0 0
1355 2 2.0425751601112885 6.601868185263528 33.780014292358295 0 0 0
5371 2 1.7444817992218271 3.134105413344836 33.93238773082717 0 0 0
5373 1 3.430894304106377 4.692054168518389 32.70751608088665 0 0 0
1342 1 4.301730674975678 4.837398469480359 31.46029422532929 0 0 0
5328 1 5.8088241136368906 3.3307681951296764 33.4915179381678 0 0 0
5375 2 5.933522321846739 3.664646846934996 31.50808063995838 0 0 0
5374 1 5.722067627103263 6.14977315070844 33.82932805455989 0 0 0
1340 2 4.896472904713057 6.551122905962771 32.28416623802227 0 0 0
1338 2 7.729009241747338 6.210672102404241 30.81796522445743 0 0 0
5336 1 9.422656326914417 3.4402289987367403 31.509912321379254 0 0 0
5376 2 9.016983291154176 5.0698447866933956 32.25771120210561 0 0 0
1356 1 0.38134221540288105 7.52557579356036 33.824114687971296 0 0 0
1520 2 2.844054778984048 7.937614916093335 30.95885182065586 0 0 0
1524 1 1.3495154287058526 9.034426332744827 31.191334185827635 0 0 0
1345 1 3.3114072374116232 7.57108479394647 32.739782601646276 0 0 0
1339 1 6.343285802936184 7.256021438088122 31.28964900005593 0 0 0
1516 1 5.583623093602643 9.660789166375384 32.764529163342154 0 0 0
1552 2 4.117571071589011 8.88849372726032 33.80632417356635 0 0 0
1511 2 9.857616045148125 8.34855771418747 30.916398428026444 0 0 0
1512 2 7.0680629700488025 8.618583021040996 32.36143960337173 0 0 0
1515 1 8.404075311185261 9.448124437742127 31.220693139369743 0 0 0
5586 1 8.10620229420844 8.046860635930717 33.81231068018575 0 0 0
5169 2 2.28209788151038 0.25085887491270203 34.128320720158676 0 0 0
5166 1 2.152014951604745 0.2574597228985849 35.9624349755696 0 0 0
5316 2 1.0745739190401513 1.7551877781618443 36.416427562287765 0 0 0
5323 2 3.847429705841097 0.17706662618611635 36.69152982771037 0 0 0
5324 2 4.758800834037135 1.8197976877891922 33.98869247382402 0 0 0
5326 2 6.430998537746584 1.829156905096 36.67721405871831 0 0 0
5327 1 4.685964728178078 1.797241671472875 35.94765692824157 0 0 0
5282 1 10.076927565522787 1.9864949162753294 36.21882332931334 0 0 0
5272 1 7.402008393654077 0.3661950429661696 36.100926048288784 0 0 0
5277 2 9.215829438934962 0.40464243828524105 36.711644803672804 0 0 0
5331 2 7.452709977738624 0.43170711579077753 34.11779262216982 0 0 0
5320 1 1.9896778710292007 3.306932568091084 35.80030486362774 0 0 0
5368 2 1.001731745508844 4.814724462078363 36.4134516602005 0 0 0
5370 1 2.0351510404398505 6.276884849455776 35.867433291020916 0 0 0
5325 2 3.698236609879297 3.2840763465810463 36.54367446165328 0 0 0
5330 1 4.702038679899253 4.845618170356766 36.067883074396036 0 0 0
5372 2 4.75935132839894 4.706601509152203 34.15631746223103 0 0 0
5529 2 6.420903527582361 4.947422282471115 36.79033658622346 0 0 0
5579 2 3.8127739278452926 6.482403342481432 36.50121152792921 0 0 0
5338 1 8.449014680672354 4.951803999588454 33.9774943852854 0 0 0
5329 1 7.3490068192669025 3.412661412693576 36.1568061502604 0 0 0
5333 2 7.461058461754447 3.4156394240976917 34.29526325870115 0 0 0
5536 2 9.078472754007622 3.5638104010195852 36.83846136315678 0 0 0
5584 2 7.3790922015266025 6.4511575950669595 34.37849692006649 0 0 0
5769 1 8.887531891127859 9.78260805465641 38.86694457504251 0 0 0
5533 1 7.324550786773075 6.562110299942626 36.26539302142477 0 0 0
1553 2 1.0962670009859012 9.164226318011696 34.67812916517632 0 0 0
5575 2 1.3754366986236644 7.8900172176541385 36.5772162057818 0 0 0
5580 2 3.387487682855258 9.385419728192321 36.64221486518984 0 0 0
5581 2 6.309132059863289 8.217432899324448 36.64149744456505 0 0 0
5582 1 4.525585325566954 8.146527557383038 35.79300926297087 0 0 0
5538 2 9.059922465045325 6.627664787856878 36.95879499514887 0 0 0
5583 1 7.162320249062951 9.909008769126837 36.268361540566694 0 0 0
5543 1 9.928182745148687 8.190374319336248 36.30485232519083 0 0 0
5585 2 9.981515955415368 8.19222898033256 34.34072790802913 0 0 0
5822 2 8.936219857859337 9.69420890416436 36.97075143924706 0 0 0
5315 2 0.05783620074231249 0.12670755938311118 38.85414646011944 0 0 0
5318 2 2.71330272055166 1.633751543525955 39.010851788268496 0 0 0
5319 1 1.0230647460610869 1.6464150129154342 38.280685446353 0 0 0
5264 1 3.7462555435298253 0.14076728597584165 38.520773790450264 0 0 0
5269 2 5.57603437980619 0.1855554325867562 39.1337751743637 0 0 0
5274 1 6.4390971276297115 1.7787263218889975 38.583151846637854 0 0 0
5273 1 9.096897774172 0.43194208927403516 38.615726875510994 0 0 0
5470 2 8.192544954605001 1.9267585487468792 39.30572425790496 0 0 0
5317 2 0.09958095968007107 3.188544709682045 38.95603555858874 0 0 0
5574 2 0.234104235936355 6.218871630741585 39.02481305915014 0 0 0
5322 1 1.0647752620629574 4.686510200965963 38.358264329747634 0 0 0
5521 2 2.7927330150036926 4.744418908929569 39.07403570197214 0 0 0
5321 1 3.697406561613329 3.2260062969681913 38.45880251547069 0 0 0
5525 1 3.6980818056873397 6.374849489062039 38.40444641033526 0 0 0
5528 2 5.372687241590141 3.284363681929035 39.18235750982757 0 0 0
5530 2 5.424010241467193 6.488452132831201 39.18271529603402 0 0 0
5532 1 6.287783781111605 4.847716150819881 38.648803215462095 0 0 0
5474 1 9.038122529634673 3.4973120758487797 38.76006728414527 0 0 0
5531 2 8.118971420396447 4.967250998987575 39.39845761283197 0 0 0
5534 1 8.960342757348098 6.620542371119591 38.83536779089079 0 0 0
5576 2 2.752052647183754 7.815468079119887 39.03390036863643 0 0 0
5577 1 1.0805958951549637 7.693823439597408 38.38980033596591 0 0 0
5815 2 5.264873963736558 9.6537585000808 39.15221766341919 0 0 0
5578 1 3.5842482102170594 9.361014864962074 38.456758460265526 0 0 0
5535 1 6.294974059843128 8.114778005948073 38.57678856555618 0 0 0
5765 2 8.009193554362184 8.231986498994994 39.44632869785866 0 0 0
2818 1 1.3324922937212063 -0.2279564959738991 31.86096790838487 0 0 0
1008 2 0.47654742207968104 12.188940060845121 1.387293406685934 0 0 0
1013 1 0.5490497624241442 10.514757152623497 2.3539975830313478 0 0 0
1005 1 1.8361971405737643 13.51326865117495 1.80428548670181 0 0 0
5763 1 4.281073042773401 11.102306297589015 2.939379709257159 0 0 0
5811 2 4.130870041583557 11.074335903462622 1.0026809680678348 0 0 0
5814 1 5.051291207275412 12.708814575887917 0.6426599143150387 0 0 0
5991 1 6.8099244044279095 12.80258260751977 3.193552437891761 0 0 0
6030 2 6.863428770176 12.83953696871743 1.2437557423894243 0 0 0
5771 1 7.864091340831918 11.276859549255946 0.6399689627010484 0 0 0
5994 2 9.588009694093339 11.294139599353944 1.3348111167573786 0 0 0
5997 1 9.485689162825592 11.24172780552795 3.215885404383127 0 0 0
960 1 3.009110039353972 16.23252909133814 1.521841828989635 0 0 0
1002 2 1.6356945559737155 15.136527935817272 0.8758682928803924 0 0 0
6025 2 3.879646608663483 13.837580637662493 1.7135394306138088 0 0 0
6028 1 4.365357765524917 15.650202954358715 1.415123135902466 0 0 0
6032 2 6.308830792520039 15.967914263214462 1.4925667862820733 0 0 0
6029 1 6.669898170314886 15.98243929996372 3.3234041280540314 0 0 0
6033 2 9.56516684245271 14.461108813913127 1.4120774223902413 0 0 0
6034 1 7.671754064855772 14.454488507958194 0.7939107590151192 0 0 0
6000 1 9.433545210894465 14.4546434546299 3.2922995469627376 0 0 0
955 2 2.6075598691702604 17.892908822306214 0.7788220442961232 0 0 0
956 2 0.459996717467911 18.80398392891571 2.812649006709038 0 0 0
957 1 0.8164051118445946 18.592252258571126 0.9585291093567154 0 0 0
1182 2 3.4471681182065534 19.181386942336935 3.1392969529808212 0 0 0
952 1 3.8859754406872122 19.11566463299181 1.4301136129180472 0 0 0
1181 2 5.23361128960752 18.741488695235866 0.10999130463191681 0 0 0
6037 1 6.735548934898282 17.74459610376467 0.7804354420452929 0 0 0
2531 2 7.039080952269938 18.921012228694792 2.3103141092262773 0 0 0
6151 1 9.757549339061542 17.68946512246021 3.1026763676409943 0 0 0
4885 1 9.406487274614037 18.937816318309874 0.11318562031754917 0 0 0
2538 2 8.465736351684646 19.062819372357303 9.573623647715815 0 0 0
1227 2 0.23442290305548671 10.752055680720593 4.242970418103975 0 0 0
1228 2 1.2578963453039387 12.36366337425834 6.406051882788418 0 0 0
1229 1 1.5336957564810356 12.116610617648437 4.609294539484386 0 0 0
6024 2 3.4364834646940654 12.196090607159007 4.165858924870516 0 0 0