LAMMPS data file via write_data, version 22 Jul 2025, timestep = 100000, units = metal

6178 atoms
3 atom types

-0.23602803185103127 40.51602803185016 xlo xhi
-0.3733357459842388 40.61333574598552 ylo yhi
-0.3055858572028889 40.59558585720288 zlo zhi

Masses

1 12.0107
2 28.0855
3 132.90545

Atoms # atomic

1 1 0.22847002339833528 -0.1624109321877418 0.5015275234960657 0 0 0
2 1 2.843193298471558 1.4771012246136743 0.6640156925125171 0 0 0
3091 2 1.9416168183415974 -0.1487666218998205 1.2759135324480828 0 0 0
3095 2 1.9625752332522235 2.9949024507909994 1.4188545427133832 0 0 0
3 1 5.520155802088898 -0.023872335246417187 0.8154856646918194 0 0 0
3092 2 4.524736223574547 1.5454052557994493 1.466409679531234 0 0 0
8 1 8.235676117580077 1.7208869486510183 1.0088575182751076 0 0 0
3093 2 7.3232057874448175 0.11472640109646265 1.4833101474811348 0 0 0
179 1 7.582466346618827 17.325156129855166 9.087568565114138 0 0 0
6 1 0.17272624584918317 3.464691508759061 0.9741972010510105 0 0 0
13 1 2.7959979139199738 4.635937606954222 0.9035388365363539 0 0 0
3100 2 1.8143568729623136 6.147262125678257 1.5932510028488047 0 0 0
17 1 0.010652364514093682 5.940621694950781 0.8852766866667476 0 0 0
7 1 5.432382679354141 3.192611332199113 0.9594210381354464 0 0 0
19 1 5.371878385823234 6.290062589573476 0.9423773562659237 0 0 0
3098 2 4.522567809543265 4.671692706219264 1.523422139048504 0 0 0
14 1 8.092024900693458 4.814072212542752 1.0196025592389322 0 0 0
3096 2 7.168735010685928 3.219419487521705 1.4571282972731876 0 0 0
3102 2 7.1771712964470895 6.362233923376502 1.5559310555383878 0 0 0
18 1 2.617654892452849 7.687141038067898 0.871323231577962 0 0 0
3103 2 1.603380540135033 9.181400222228403 1.4556215565971735 0 0 0
22 1 5.222213228713321 9.392933484496906 0.9412208695438506 0 0 0
3101 2 4.464200603395068 7.770900499088064 1.4871022658051145 0 0 0
23 1 7.979505320771796 7.926274564528301 1.1339710685294575 0 0 0
3104 2 6.960966338498549 9.436972055459414 1.704960203546491 0 0 0
3105 2 9.732432036509074 7.973117247562833 1.8315558981104312 0 0 0
28 1 2.382003485011022 10.671472330158762 0.6851867819074681 0 0 0
3109 2 1.1991476489403974 12.217886286931314 0.9059769636904274 0 0 0
33 1 4.993219778075148 12.49196833415938 1.1326181202591965 0 0 0
3107 2 4.127133453418839 10.90808983890075 1.5514347705346903 0 0 0
29 1 7.8739814224087805 10.98726802597961 1.1011715999043223 0 0 0
3108 2 9.632030671955793 11.070507833060072 1.713953538420324 0 0 0
3110 2 6.812060302180451 12.488294134317988 1.7906819427385456 0 0 0
77 1 2.2089529288334995 14.561648435522281 2.3796867156214208 0 0 0
3111 2 1.2773774441066414 15.306225782068884 0.9340700662878274 0 0 0
36 1 5.1263096889102036 15.48934185630544 1.256952587388183 0 0 0
3133 2 4.068838818199723 14.02487626876443 1.9281298496389274 0 0 0
768 1 5.235543272578041 15.229218847505502 -0.2162007511708846 0 0 1
37 1 7.793138648514576 14.117057689648885 1.2839682662623089 0 0 0
3112 2 6.878075162436309 15.568630891676683 1.9360468802821127 0 0 0
3134 2 9.525453833998968 14.160635976862388 1.8985739796267747 0 0 0
45 1 0.5937055817137015 18.37098353716359 1.0319399461143373 0 0 0
3113 2 2.1681196327480667 17.447049595404028 0.8277349622982222 0 0 0
3140 2 0.41738591025348903 18.662941333744882 2.9112715905251503 0 0 0
81 1 3.331196525317448 17.378102931233524 2.2696743716788266 0 0 0
41 1 4.600607018604705 16.944293832548393 1.5301346784095475 0 0 0
46 1 4.344787505994308 19.743777522801267 1.859308387216807 0 0 0
3115 2 5.710269730287295 18.57208328696757 1.370131130195789 0 0 0
42 1 9.701011706295182 16.87475657241312 1.7542528520559535 0 0 0
3114 2 8.060668777124654 17.084586706043265 0.4968268023851333 0 0 0
3142 2 7.544763161048096 18.513923974750966 2.981307219688126 0 0 0
49 1 1.9832234133631976 -0.15578214809979174 3.1307789496961247 0 0 0
85 1 -0.018052252996629548 0.03405234299877452 4.894364758465695 0 0 0
3145 2 0.85038960664593 1.2919072473595152 3.634557875883033 0 0 0
55 1 1.7557979567542978 3.004855461782185 3.2548711841110594 0 0 0
50 1 4.475476560108038 1.5278438433479284 3.292571322067619 0 0 0
86 1 3.802644142929613 -0.16433279955227253 5.787254579976292 0 0 0
106 1 6.200023907418182 1.5768048862395656 5.940346992325446 0 0 0
3146 2 3.745161194439945 -0.14748930868071697 3.8641088666078964 0 0 0
3147 2 6.306955430005344 1.6601998505972597 4.0211665305084505 0 0 0
87 1 3.4213240872291686 2.8026172824396856 5.939719278684972 0 0 0
3151 2 3.3919899192466194 3.135609633672289 4.079345926634949 0 0 0
3871 2 0.497916291598554 20.04681643167156 0.2763027683224232 0 0 0
51 1 7.195318963463063 0.08830327560652695 3.4289017270523483 0 0 0
107 1 8.92221154156401 0.10247482303224764 6.056313367555039 0 0 0
3148 2 9.071426848006675 0.12873631779052797 4.10909043433002 0 0 0
63 1 1.7079950287644623 6.185567785659569 3.397311225691552 0 0 0
3157 2 0.6190467403614601 4.5838143033730825 3.365325474369659 0 0 0
60 1 4.367118915582321 4.653157100547882 3.5103420165908883 0 0 0
116 1 5.9065716755092295 4.560622403884151 6.060387338432123 0 0 0
3158 2 6.119131132636486 4.736890720547829 4.130927912035005 0 0 0
3162 2 3.422403178575235 6.154899229171857 4.105349614274923 0 0 0
56 1 7.138041625012807 3.174136752800704 3.4141873735378936 0 0 0
61 1 9.743502421964667 4.7989947324067765 3.6467258743918864 0 0 0
65 1 7.031006592589152 6.291345581426208 3.525889650197558 0 0 0
112 1 8.828452497428875 3.2183398943662667 6.038073970841561 0 0 0
120 1 8.724618104454619 6.361536519075387 6.167849648252615 0 0 0
3152 2 8.939761760434635 3.1172843930018335 4.096720304816582 0 0 0
3164 2 8.74525270143217 6.317537715290299 4.301265752043829 0 0 0
68 1 1.5114828922355872 9.251792924384729 3.2532274656471287 0 0 0
89 1 0.8518156135398516 9.189426029454419 5.556093417688729 0 0 0
123 1 2.2101406775585803 9.482995605390471 5.938864378905265 0 0 0
3161 2 0.5797265560327028 7.671242780331314 3.9614998632766927 0 0 0
88 1 3.2163632276681544 7.049007566948711 5.974273160839287 0 0 0
3167 2 3.205498546825844 9.143161472411848 3.9299389789551142 0 0 0
90 1 3.2684005702614196 8.59559551714445 5.72384399282271 0 0 0
64 1 4.3707787051882585 7.6937621029134515 3.3021316183082314 0 0 0
124 1 6.001566000267196 7.697802077245003 6.024752943333366 0 0 0
3163 2 6.070323917395736 7.7787132970517785 4.136749310444352 0 0 0
3214 2 5.015011851112847 9.115307384044636 6.506599846424125 0 0 0
69 1 6.897127583595869 9.365706037143521 3.514499524363491 0 0 0
70 1 9.657932908690595 7.900755170049692 3.684352325525378 0 0 0
125 1 8.507703801368187 9.365547581652237 6.085789174191554 0 0 0
3168 2 8.61162830195204 9.402570225262947 4.211888096485434 0 0 0
93 1 1.5953426441406207 12.065613294673476 4.526586888696454 0 0 0
3173 2 0.4422738921746451 10.67174315319664 4.191808639115343 0 0 0
3177 2 3.356880391748779 12.103682559262346 4.31087109182147 0 0 0
73 1 4.088960488406572 10.714296525321041 3.4681548787755587 0 0 0
130 1 5.802504359124825 10.727671456204714 5.929767767677499 0 0 0
3174 2 5.918774384878718 10.77273641808378 4.089078092894147 0 0 0
3225 2 5.057913872125861 12.459281732534865 6.572766880500453 0 0 0
74 1 9.506637268661875 10.981443935669427 3.6245137663525635 0 0 0
75 1 6.895420460526357 12.370659882503526 3.695395450646193 0 0 0
135 1 8.673653452021782 12.345803208532114 6.130192249520955 0 0 0
3179 2 8.657983388953912 12.510212307051377 4.32427197828011 0 0 0
3129 2 0.9977299919450235 13.343514311538963 3.194515485999624 0 0 0
3138 2 2.3051063021658704 16.237930418751652 3.4082736268037506 0 0 0
3228 2 2.097144904569046 14.80224748268406 6.376108131106182 0 0 0
96 1 2.9744916316873393 15.944158005878847 5.138824317374153 0 0 0
94 1 4.276959280271351 13.579718176837964 3.6908368708815784 0 0 0
3178 2 5.8868745219006104 13.79650997858512 4.578702009969079 0 0 0
144 1 6.501851066870879 16.336489685462272 6.553111928922833 0 0 0
78 1 6.861832321548945 15.235736420525653 3.809456876984144 0 0 0
79 1 9.377799723724353 14.163605517662052 3.840373739315769 0 0 0
97 1 8.251945814749927 15.050779922363139 4.312308128941363 0 0 0
3230 2 8.168792842623398 15.496160098182614 6.358303913105337 0 0 0
80 1 0.49888246854849627 16.94606026024385 3.7115622926530403 0 0 0
84 1 1.7501334679367913 19.744752635355972 3.5882609541925032 0 0 0
145 1 1.5070672351717007 18.284025339791107 6.297503072284748 0 0 0
3185 2 0.22578869730525436 17.117498729508196 5.6574570301558955 0 0 0
3191 2 1.3535549693095175 20.024118397260715 5.425994925397386 0 0 0
3187 2 5.952127163974758 16.793186032285057 4.802127245258273 0 0 0
3186 2 3.2436089309347205 17.51929435620651 6.040786963025064 0 0 0
102 1 4.316067771648804 18.664643675147452 4.954918832128451 0 0 0
3141 2 3.4604134326924534 18.96268918538515 3.2891456558045418 0 0 0
3911 2 6.27951554895766 19.168797994239263 4.770943188160085 0 0 0
3234 2 4.352935513951502 19.813217907477373 6.4184246895503545 0 0 0
3099 2 9.830453689884264 4.922247320791606 1.6932047506460692 0 0 0
3139 2 9.108137396364786 16.774111602966457 3.555325932781353 0 0 0
3236 2 8.296900155937124 19.110159631825734 6.29771107348096 0 0 0
3199 2 2.489568127777027 1.1539642507327064 6.456897387034535 0 0 0
3194 2 0.40216713661464554 0.2439332624427526 6.69792704070497 0 0 0
3239 2 2.298508551090993 1.0164954683035403 9.000800671919812 0 0 0
119 1 -0.18152527306947414 6.947649174861142 7.484644046973259 0 0 0
148 1 5.123007814181532 0.11321362557186765 8.508014569547035 0 0 0
149 1 4.328962875679547 1.415671138788776 9.052411757310148 0 0 0
154 1 4.938364265566024 2.8778346402975123 8.541651876747824 0 0 0
3195 2 5.440559620322317 -0.004567082013699264 6.644431231666223 0 0 0
3200 2 5.175217683236218 2.9897503829303154 6.565695038545267 0 0 0
150 1 7.882570395150719 1.6683479364058185 8.466805806168622 0 0 0
3196 2 7.963033073321865 1.61491025304085 6.607457134710906 0 0 0
3240 2 7.014087315839864 0.12224062086269133 9.090277726360384 0 0 0
3241 2 9.616165269228683 1.6154135423857316 9.226675535514895 0 0 0
3245 2 6.792779528509349 3.0283659008812354 9.04782966349796 0 0 0
3205 2 2.6226269302357688 4.154118078082266 7.031025225464147 0 0 0
111 1 0.9218478047718035 3.801879204378163 7.440460502928312 0 0 0
3249 2 1.097305975788456 3.9063640746508215 9.239774756917134 0 0 0
3235 2 6.746629307659885 17.970270051913463 7.485015158511641 0 0 0
3210 2 4.868201124500621 6.1598687670950865 6.6432496821868305 0 0 0
163 1 4.8151182479501085 6.20266912426146 8.507489082424259 0 0 0
3250 2 3.927071934825797 4.542032377692081 9.091010347753427 0 0 0
3254 2 6.628992901414125 6.245963657077861 9.130409733289959 0 0 0
159 1 7.665433885108748 4.6557728397513 8.611111690409354 0 0 0
3206 2 7.752749256886234 4.672558251403905 6.673898009977237 0 0 0
3251 2 9.417845311271018 4.652958743064018 9.327021574476573 0 0 0
146 1 5.3166391731450835 19.25079738794818 7.970412861808933 0 0 0
3209 2 1.741743199076912 6.459072458753706 7.236097179969244 0 0 0
162 1 2.269694856071536 7.753921551014967 8.645371915114769 0 0 0
168 1 1.3692022407985571 8.985081144577974 8.509470318908141 0 0 0
3213 2 0.0051858647872144725 8.813457430330006 7.156711985810074 0 0 0
169 1 4.3022999460339095 9.553729790461817 8.191446833240859 0 0 0
3258 2 4.028157403983756 7.924113167794241 9.221709630168103 0 0 0
164 1 7.71678286286951 7.756737218240401 8.593681651190044 0 0 0
3215 2 7.69488803246466 7.840165185325878 6.780961377822777 0 0 0
3255 2 9.382875994895281 7.751830262410046 9.238214482416133 0 0 0
3224 2 1.4354955413692188 12.488468668225927 6.395504387849852 0 0 0
4804 2 -0.11805101971532254 12.580831338579001 8.565410672283006 1 0 0
3220 2 2.5845732814318088 10.412630766870667 7.607763293554896 0 0 0
133 1 3.4138986377876996 12.204224730823018 7.635104325671331 0 0 0
176 1 3.6529148879797164 12.366053600744655 9.200021843293207 0 0 0
3262 2 5.137741849894755 11.07749165503778 9.007806673651979 0 0 0
134 1 6.360392797243773 12.095103755760023 8.044001502597174 0 0 0
3221 2 7.655904577350673 10.96940670798953 6.828118465415662 0 0 0
3263 2 8.80470159235293 10.532256749893605 8.85977474128173 0 0 0
139 1 0.3320349047673553 15.442368752924736 6.630441598751041 0 0 0
3269 2 2.3964864101104277 15.604939841832701 8.551339561988428 0 0 0
3276 2 4.026297699150369 18.143221607944085 8.851299025086867 0 0 0
177 1 5.730959813533346 14.893658291994834 9.117770880607866 0 0 0
3229 2 5.11131010949114 15.39827585073317 7.377994564797343 0 0 0
143 1 3.8305455988090564 16.713795859239475 7.734643878179947 0 0 0
3226 2 9.7640971864832 13.296624511481472 7.256242700788092 0 0 0
140 1 8.500096241692969 14.535241987315297 7.920288567025029 0 0 0
3265 2 7.074823098881742 13.641878331747142 8.81321273040315 0 0 0
3272 2 9.04970039802694 16.12822969428368 8.738792333642504 0 0 0
3275 2 1.2270577843164903 18.831937057799898 8.081129810392696 0 0 0
181 1 2.4153806403043117 18.81398451591745 9.57724855721296 0 0 0
52 1 9.929790034623057 1.6547624495741076 3.503110008678054 0 0 0
153 1 0.8439260200865251 2.0769553198132256 9.762565232685734 0 0 0
3268 2 -0.1513883684967512 15.504286907156056 8.566952433851483 0 0 0
820 1 8.605682482806934 20.11996459032375 2.7977014037067125 0 0 0
3232 2 9.903708313974334 17.306666945621483 6.860553404715332 0 0 0
233 1 0.7981096123835565 0.37070226329711287 12.348043122828088 0 0 0
237 1 2.7982201621742133 2.676023174400809 12.056653435226924 0 0 0
3286 2 1.0671038003927145 2.0859757342845637 11.713359281000582 0 0 0
184 1 5.602595844355069 2.4095158313517953 11.78476001354196 0 0 0
234 1 3.893663611561025 -0.11522935870030354 11.914021321885606 0 0 0
3283 2 4.068225709967508 1.565648758390973 11.101523245799978 0 0 0
185 1 9.227801413770177 0.1874185877009673 11.567735632849514 0 0 0
186 1 9.537697501823478 1.6195637757592463 11.150058977334062 0 0 0
190 1 6.725609540175352 2.9829427135075517 10.944459721700504 0 0 0
3287 2 8.430961674632275 2.990868222625385 11.825073824969442 0 0 0
242 1 1.7319690798037 5.602026331541967 12.125003471694008 0 0 0
3290 2 0.013323987007144794 5.081632378200689 11.769786292113086 0 0 0
3291 2 3.0348133581638166 4.413269047644961 11.369276866816278 0 0 0
336 1 9.701968569463093 17.94689515687436 16.978719409656538 0 0 0
3292 2 5.554254894537333 4.507760764184334 11.147447887812579 0 0 0
3321 2 4.668130599227906 5.796874335493937 13.04933587679223 0 0 0
198 1 6.610586953433116 6.1027195751876135 11.05775647075823 0 0 0
195 1 9.306731757071422 4.650374482972914 11.17472163383774 0 0 0
3295 2 8.330024496599945 6.11946382743085 11.670551574547474 0 0 0
201 1 1.1959468152837383 8.683241586039529 11.905727445964729 0 0 0
3294 2 2.5533827310912396 7.351428912606306 11.782206828096587 0 0 0
3296 2 0.8437619900403153 9.469534893787435 10.172575031877587 0 0 0
197 1 5.5910701721664955 7.133014416206116 11.776350958558421 0 0 0
202 1 4.401384194395773 7.889822713146273 11.081393074895228 0 0 0
3300 2 4.520254543461519 9.805855201827365 11.710412825641932 0 0 0
3324 2 6.648036061487752 8.212009509047075 12.929328090088665 0 0 0
203 1 9.120852061780745 7.802223531996573 11.112662344428013 0 0 0
204 1 8.053945069998916 8.913936921235528 11.851563113401811 0 0 0
3297 2 7.233634698101718 9.448917753429438 10.253747151364262 0 0 0
212 1 0.7692619563601915 12.6333770467335 10.529912237730864 0 0 0
252 1 0.27036267259889635 11.315299471660524 13.17916817415588 0 0 0
3328 2 1.7141403040431453 10.167806314818787 12.918138352141463 0 0 0
3299 2 2.24551480750257 11.513380832365618 10.30833814817145 0 0 0
208 1 3.014841632585687 10.955656966250706 11.921362707208472 0 0 0
209 1 5.845501031129139 10.663209736093787 10.718020795792441 0 0 0
3331 2 3.7020260856936074 12.573547424924577 12.813056412231544 0 0 0
3302 2 6.467468573746405 12.246428027502345 11.597462248380195 0 0 0
253 1 7.238299638550756 11.756472442736575 13.266446726335563 0 0 0
3303 2 9.351697917850325 12.129720288677007 10.31066042518075 0 0 0
3329 2 8.651638168400988 10.56797612657247 12.830155559982238 0 0 0
214 1 7.753911304906049 13.19742337246689 10.518842763366665 0 0 0
3421 2 8.286698208715974 17.11119350513141 17.92480798111414 0 0 0
216 1 0.27132327174563586 15.503402911207107 11.748206560416818 0 0 0
217 1 2.8578230704586547 15.125614604570897 10.365918795621639 0 0 0
255 1 2.2644459043603233 13.769936018536484 13.078892442557772 0 0 0
3306 2 1.5626596891620081 14.176218886696223 11.366855323953402 0 0 0
224 1 -0.13429659740122268 16.24870055218458 10.537554263289637 0 0 0
213 1 4.948487947748743 13.449963002191836 11.750594493798351 0 0 0
260 1 4.159641466212292 16.224067480145443 13.040183355463116 0 0 0
3336 2 5.643292419075864 15.015419012474604 12.694340695432766 0 0 0
210 1 9.906005999565236 11.567071138964918 12.031230359299698 0 0 0
3311 2 3.4397215156953105 16.76212261783415 11.249454280747626 0 0 0
3280 2 4.296665678873758 13.938030521273294 10.03871255067307 0 0 0
218 1 6.970350294387328 15.905466967012572 11.745437632215763 0 0 0
257 1 9.23643548062845 14.258514101986929 13.143779015346263 0 0 0
3307 2 8.48392530485792 14.72793981015726 11.456662940145046 0 0 0
219 1 9.834751237961333 15.52349023791108 10.332701334083465 0 0 0
3338 2 0.1180702256944034 16.84428681471856 13.179274820820444 0 0 0
228 1 2.1141270353533015 18.209016581125038 10.98935630029347 0 0 0
3310 2 0.19443924720348754 18.03987459925674 10.993176203707677 0 0 0
3345 2 2.639977833391746 19.33142304978463 12.445236979080954 0 0 0
225 1 4.953804228460538 17.62867654604968 10.436195454091836 0 0 0
263 1 6.2159672126189855 18.58083126965383 12.88476009848372 0 0 0
3314 2 5.370775062669859 19.212798780691568 11.330677432371257 0 0 0
3470 2 7.493200360791013 19.84427666426973 19.11749244114657 0 0 0
3346 2 9.663655240823877 19.813212096455334 12.546376578315698 0 0 0
230 1 9.010116794500574 18.324392487225268 11.595858423936624 0 0 0
3340 2 7.69136149603695 17.374523861925788 12.528314795059643 0 0 0
3277 2 8.122516580445474 18.901132710397356 10.017077659339108 0 0 0
267 1 2.825558698675251 1.0326916631190917 14.613082931903364 0 0 0
3349 2 1.0293431267620445 0.4016856452048375 14.245577885918868 0 0 0
3392 2 3.027435133890068 1.0850490502382248 16.522877552517155 0 0 0
3354 2 3.082112113457326 2.8822177795859947 13.978671219037636 0 0 0
268 1 5.830024607225181 0.5186247051245239 14.205475287244711 0 0 0
3317 2 6.023637306663563 2.293433020741517 13.574684921670809 0 0 0
3350 2 4.14663906643105 -0.15896790796882204 13.893978109495718 0 0 0
3393 2 5.981013856088335 0.44308828980651016 16.106322959323453 0 0 0
238 1 7.949799135674244 2.6652670965447234 13.563732762150584 0 0 0
269 1 8.718970171611709 0.1954198932562201 14.255385877729658 0 0 0
273 1 8.91836124377678 1.6922469159561815 14.220100852528425 0 0 0
3398 2 8.751212763456035 2.2255607581259076 16.20425396450306 0 0 0
4163 2 9.032146064156553 -0.32449031871201356 16.126305357339643 0 1 0
275 1 1.6751713964448571 3.867226091497158 14.711869738342314 0 0 0
276 1 2.817437979304223 5.674229300784055 16.067337866580857 0 0 0
3353 2 -0.03773051985818693 3.284787321287741 14.394977942777057 0 0 0
3362 2 1.8491309231753714 5.897501016439156 14.283931331619145 0 0 0
272 1 4.927626490028995 3.5955727519395175 14.628228558320378 0 0 0
277 1 5.542231142323282 5.069447654133498 14.565541445114459 0 0 0
3397 2 5.4924899080381255 3.373054842327383 16.52880927117241 0 0 0
280 1 9.497964905853824 5.990724575529671 16.07587614652348 0 0 0
316 1 7.565356195018503 3.6357388406508395 16.13882512984209 0 0 0
3358 2 7.537666647588401 4.3386665999342 14.368958750550254 0 0 0
3364 2 8.7814509212102 6.5196576436738685 14.3394877711383 0 0 0
278 1 0.43234557841152554 7.259280729356447 14.538778411261012 0 0 0
281 1 2.4032012582749793 9.67665905348371 14.618234633979508 0 0 0
3367 2 1.0399276358731582 8.703995891637845 15.537462605116692 0 0 0
249 1 5.157588427592703 9.414132804922092 13.463426496880574 0 0 0
245 1 3.2704907980155133 7.00702012515366 13.577459279920776 0 0 0
282 1 4.602303059411842 7.935413204492143 15.991265865859496 0 0 0
3363 2 5.998714173819097 6.695075850414993 15.638868820840026 0 0 0
3368 2 3.85685268169068 8.564208955354305 14.422713077904444 0 0 0
279 1 7.312136633377494 7.680725386696622 14.672718385696244 0 0 0
3369 2 8.01966710836036 9.163231103357251 15.588672394897685 0 0 0
290 1 1.595878486432442 12.439595255352438 15.83135096457336 0 0 0
3374 2 2.9650375302899046 11.216097136465534 15.54499503079669 0 0 0
3378 2 0.8999827868688273 12.87563924589861 14.06036457928299 0 0 0
291 1 4.39295443732269 12.093681145444114 14.448646887406227 0 0 0
3375 2 5.8782236154544965 10.953912258070932 14.214793584107193 0 0 0
286 1 6.6127734088128065 10.415653339493275 15.89875457666897 0 0 0
287 1 9.324634813738248 10.120022184491186 14.610561485041607 0 0 0
292 1 8.531543755909452 12.819812028842353 15.831819561006231 0 0 0
3411 2 7.2433584507101605 11.943869803400988 16.825843835019832 0 0 0
301 1 1.4363833355020332 16.442920248827047 14.348971089321854 0 0 0
3335 2 2.7967990836852707 15.323058744218681 13.968811851771443 0 0 0
3382 2 -0.05076367703509324 15.580303816001765 15.39129430867455 0 0 0
3414 2 2.2105410602235707 14.021772735525067 16.69807248565938 0 0 0
296 1 3.567106418515476 14.836800845729343 15.655097665492463 0 0 0
297 1 6.374050027043691 14.50211868931497 14.399708158364275 0 0 0
3379 2 5.023706584556791 13.587679742931487 15.415287853466404 0 0 0
3420 2 4.178647984673245 16.374383704989246 16.5261882256267 0 0 0
3332 2 7.856880814030747 13.350419528439959 14.114518327331156 0 0 0
3383 2 9.822183760679312 15.77449043275341 14.050846698781283 0 0 0
3386 2 7.028803954571977 16.073185150356455 15.250885207552775 0 0 0
3416 2 9.234587844242425 14.440364947141155 16.69602074923595 0 0 0
306 1 0.6649361971465835 19.301705377329327 15.27837824706405 0 0 0
3388 2 2.053997627706521 18.103987757109326 15.111349720267814 0 0 0
3344 2 -0.055037716471301845 20.01632721417213 13.621390031157489 0 0 0
335 1 2.7639139071211343 17.54878667744335 16.762459236375854 0 0 0
302 1 5.525911178644709 17.235807046481657 15.569437977282217 0 0 0
307 1 3.436441662479529 18.88546594585618 14.112510786956696 0 0 0
3339 2 4.844271842448238 17.706858242887403 13.842046714256371 0 0 0
3426 2 6.112511086854166 18.784769935847404 16.50097274495738 0 0 0
338 1 4.7516767178829 20.015861472622536 16.740156133523207 0 0 0
3425 2 3.3314470163926297 19.13524130921762 17.706885005786884 0 0 0
303 1 8.356918274430477 16.905478714165426 14.243025461548488 0 0 0
308 1 7.572293612603249 19.62338508503357 15.59957028820425 0 0 0
3389 2 8.957468960845734 18.418055544554683 15.201383930109946 0 0 0
314 1 1.7167065324840265 2.137724658273177 17.301311479235814 0 0 0
340 1 1.6157695967627608 0.31147033109826416 19.935179033998917 0 0 0
3391 2 -0.04243158736602093 1.537636714954485 16.910866815305493 0 0 0
3435 2 2.0827642014678647 2.101178730217043 19.191173560582158 0 0 0
4242 2 -0.07887987549030895 -0.2988547194235678 19.445911180149643 0 1 0
341 1 4.672384867976938 -0.20132199042145693 19.548842110177283 0 0 0
393 1 3.800065555222864 2.376650118141813 19.888504167937242 0 0 0
311 1 4.792686610121057 1.6424837724491868 16.98482304678083 0 0 0
3430 2 5.084298779646326 1.5641215016349816 18.821729267557 0 0 0
312 1 7.686468459758936 0.7983803011719248 16.779910192041523 0 0 0
315 1 9.631200858882105 1.9642487250008442 17.85290917600195 0 0 0
344 1 6.803122548085452 2.1392193312954664 19.48521919064476 0 0 0
3431 2 8.199272472752789 0.963250783197146 18.82992786795904 0 0 0
3400 2 1.941407391836922 4.039807968452278 16.64160099902331 0 0 0
343 1 0.5233416607717283 3.1795603188905663 19.767857611896662 0 0 0
3439 2 0.7130729838363012 4.716864003203463 18.54221958917079 0 0 0
3444 2 2.5616264936741207 5.759668034263659 19.704509037547705 0 0 0
347 1 6.140842760360976 4.973976411950006 20.034278977693006 0 0 0
3440 2 5.3856488243236535 5.365007504445042 18.333624893018328 0 0 0
348 1 8.926880290145448 4.650934927048285 18.72364709867674 0 0 0
3401 2 8.204962140544353 5.125402647949748 17.0846045569317 0 0 0
3441 2 7.539509695262747 3.8357780392340732 19.761494774728707 0 0 0
3445 2 9.54595122640199 6.1653342863046685 19.762838871453457 0 0 0
319 1 6.757018664757672 6.3016914254751075 17.386099380023108 0 0 0
322 1 1.8068042020645243 8.326123269100453 17.334908747205485 0 0 0
3443 2 0.4171974439096835 7.479325809636049 18.403462881109313 0 0 0
3454 2 2.3481529613415764 9.909533643590969 18.21576898282695 0 0 0
359 1 3.1057177225879435 9.372296113311522 19.84912496142962 0 0 0
236 1 -0.19691080637933567 3.283646012851904 12.499594719816097 0 0 0
3404 2 3.1951683722948334 7.101589968168794 17.017402631225554 0 0 0
354 1 3.8490690832075583 6.627927755419688 18.647450957180705 0 0 0
360 1 5.915304367910973 9.007993122885946 18.593800641677955 0 0 0
3407 2 5.189188011214627 9.481158820456146 16.914982393463955 0 0 0
3449 2 4.50033234395619 8.181179574335514 19.607262959141455 0 0 0
323 1 8.753623397508552 8.733589166797987 17.327345203510905 0 0 0
355 1 8.09047283304818 7.396030826622647 19.967629509020405 0 0 0
3450 2 7.361162112095563 7.841507190749764 18.26409573230962 0 0 0
3408 2 0.16459236026263713 11.566909689833366 16.758931408703145 0 0 0
364 1 0.9027418011398978 11.080452109155802 18.45646604834486 0 0 0
3459 2 1.5679509621315266 12.611877199991547 19.342567479298843 0 0 0
325 1 3.7477882229107706 10.684666173680819 17.182197991866392 0 0 0
328 1 5.75391867263864 13.184317241380365 17.054788374899633 0 0 0
365 1 5.104443637268922 11.756068150913913 19.830275304660823 0 0 0
3460 2 4.392777237636104 12.23809961703597 18.091128771477933 0 0 0
3455 2 6.565743957144522 10.59557183827418 19.544456842948886 0 0 0
366 1 7.8414525397858235 11.433370782447858 18.581327394074126 0 0 0
3456 2 9.417509173970776 10.276074359926648 18.197122560708955 0 0 0
3461 2 8.514433884904179 13.006032648053061 19.405674912354158 0 0 0
331 1 0.7958859207195121 15.187112807171106 16.987497077601308 0 0 0
369 1 0.1263797221325742 13.81381724007815 19.69911101099017 0 0 0
370 1 2.9229777810879045 13.471668586302362 18.33506998834432 0 0 0
378 1 2.055994442996564 16.279645764398392 19.539900278835198 0 0 0
374 1 4.891367212597725 15.936953681802152 18.241760869039968 0 0 0
3415 2 6.378953052822907 14.743779494405572 17.896662360995684 0 0 0
3464 2 3.487309635795904 15.103785316153543 19.262605843673125 0 0 0
332 1 7.748149764318329 15.60246166497936 16.946599006328366 0 0 0
375 1 7.031821506861373 14.253037205670044 19.592939774044343 0 0 0
379 1 9.026461106602387 16.539412109247174 19.57960691881294 0 0 0
384 1 6.876099449030792 18.3275448491081 18.159201114160783 0 0 0
3419 2 1.4055235285016126 16.80717256390852 17.847762957438334 0 0 0
334 1 0.011289336707564296 18.013462604504955 18.106469307271894 0 0 0
3469 2 0.5496515234018758 19.54731366754596 19.011923395613678 0 0 0
383 1 4.1215052795734275 18.68113380754235 19.40585981408228 0 0 0
3467 2 5.526793029402007 17.416219158695952 19.163178752419327 0 0 0
371 1 9.920779673214177 13.858101708646151 18.329450987946355 0 0 0
4098 2 6.906822401908466 20.0329264567756 13.85407016010722 0 0 0
3281 2 6.296136475472911 16.40502242453151 10.084595651498473 0 0 0
420 1 0.5481777593454665 1.5389390459658265 22.532687950820065 0 0 0
3472 2 1.926692904346674 0.48232624233285004 21.78790791949373 0 0 0
386 1 3.8861968971284275 1.725348512801685 21.304108746126523 0 0 0
394 1 4.994230023131248 2.714373843037223 21.824818549506386 0 0 0
3473 2 4.819687808671694 -0.08744785339715938 21.42037240574205 0 0 0
387 1 6.58973618793133 0.29707917657161986 21.969588985349215 0 0 0
389 1 9.247137730560336 0.7548281520579796 20.603113212254108 0 0 0
3475 2 6.757342583672479 2.1193044153963827 21.43815557576564 0 0 0
574 1 8.33490284558151 17.566786433280917 28.714420061741613 0 0 0
3501 2 9.818563818731626 14.012341294308442 22.019955256789995 0 0 0
3474 2 0.4983594113944325 3.2172715655677333 21.61387821921334 0 0 0
3522 2 2.2085956280183208 4.499734139948306 22.799072847217126 0 0 0
424 1 0.3140999121542267 4.912250778955335 23.576960217681034 0 0 0
397 1 3.278439775351273 5.3225656666719985 21.421178312420476 0 0 0
3479 2 4.515669184893997 4.132992236628782 20.721658961833544 0 0 0
395 1 8.308089553622983 3.2965239169838316 21.546754924289363 0 0 0
430 1 7.536448680098674 6.0035349742832755 22.641487466629595 0 0 0
3524 2 8.956689687272693 4.764462554528112 22.496844973847843 0 0 0
3482 2 6.704012555200005 6.4963316065605055 21.022945508307718 0 0 0
401 1 0.3284511595715448 9.815264064634599 21.207752469597153 0 0 0
434 1 2.373013874453381 7.954717520907714 22.60205371041713 0 0 0
3484 2 1.6928272126815844 8.545604173366838 20.991031125773564 0 0 0
3533 2 3.04965287087253 9.537822389097855 23.443295898505877 0 0 0
399 1 5.2387463546039825 7.620693792388448 21.255406382956963 0 0 0
3485 2 5.89164648176075 9.223125821237273 22.229688793260415 0 0 0
3528 2 3.8741168377558166 6.729780241106716 22.386796157221855 0 0 0
436 1 9.464830689059543 8.391520493939163 22.57366994306585 0 0 0
3486 2 8.792969391859298 8.860736379724198 20.8627650235092 0 0 0
3529 2 8.084445572332214 7.491705973315909 23.67208798124529 0 0 0
406 1 2.3262324645591543 12.085983385109062 21.028784808696674 0 0 0
3489 2 1.0000696834362166 11.320995945421426 22.0771158092558 0 0 0
440 1 4.4423691901885975 10.409125139413467 22.42608592703056 0 0 0
3490 2 3.7239241249978523 10.911329963692822 20.8198475191017 0 0 0
3537 2 5.093248434286861 11.91036227939228 23.371235064559237 0 0 0
446 1 6.415703864440333 12.810325379809447 22.322201026919362 0 0 0
404 1 7.254898535830867 10.011505402007135 21.18318444710511 0 0 0
407 1 9.184198108669806 12.564342632208973 21.058806878900874 0 0 0
3491 2 7.868134360142539 11.6256271228513 22.024200303560058 0 0 0
450 1 1.497892356080944 14.918784897002672 22.29597160124975 0 0 0
3494 2 2.905741752871063 13.716007594266868 22.000149661993508 0 0 0
3498 2 0.6696169128850187 15.34582955631391 20.59658391899676 0 0 0
3540 2 0.0973698568943806 14.022549330950547 23.30059778948986 0 0 0