LAMMPS data file via write_data, version 22 Jul 2025, timestep = 100000, units = metal

6176 atoms
3 atom types

0 40.21 xlo xhi
0 40.21 ylo yhi
0 40.21 zlo zhi

Masses

1 12.0107
2 28.0855
3 132.90545

Atoms # atomic

3091 2 2.790845171958493 0.8088204484410101 1.1467117597459242 0 0 0
3132 2 1.8693180309092416 0.6728701991823746 3.360616474624934 0 0 0
4 1 3.4463201332988724 2.2970021039163493 0.2650804906418385 0 0 0
1 1 6.0153971039618055 0.8513076372927109 0.37139791111273707 0 0 0
50 1 5.038930022721379 2.363112359689233 2.7992466542717414 0 0 0
3097 2 5.177534231523964 2.412238534885343 0.928285294510902 0 0 0
6 1 8.618614834491149 2.327151851712222 0.35255086116225365 0 0 0
47 1 7.762763747342799 0.8692985671101155 2.85070936915918 0 0 0
3092 2 7.785218842957721 0.8235861834502748 1.0407605017845976 0 0 0
4630 2 0.4099375142045934 6.250357355969258 1.4518530800031637 1 0 0
54 1 2.252627815214969 4.001254510627918 2.5455810300161925 0 0 0
3096 2 2.3480533185805483 3.7730836823606495 0.6933117431989124 0 0 0
53 1 2.132051579862406 5.402636589192156 3.0927694195092643 0 0 0
15 1 2.7454573315545274 6.541208580801373 0.7477813378488424 0 0 0
620 1 3.3505342481791613 5.332433087419217 0.20466085919122476 0 0 1
5 1 6.035532438512958 3.935145785667051 0.28547686227086494 0 0 0
55 1 4.9650027886633765 5.420760243021077 2.6385933727571453 0 0 0
3100 2 5.094602569752412 5.48647452543866 0.7990289230965573 0 0 0
10 1 8.618785172582301 5.466507067298079 0.3625648178509223 0 0 0
56 1 7.642759673831118 3.9657672075840673 2.8101460629349484 0 0 0
3101 2 7.779268591536308 3.910448502906831 0.9897535700104704 0 0 0
61 1 2.234402131698933 6.689640671931203 2.128164081294615 0 0 0
20 1 3.271357476013166 9.39007128024137 0.9988387484479566 0 0 0
3152 2 1.1114710389398719 8.135395716930129 3.1333992604264074 0 0 0
21 1 3.9281145594952456 9.17159647241298 2.3024433404408096 0 0 0
16 1 5.940719308204798 7.052724934373348 0.09548401945949082 0 0 0
66 1 5.015721839611757 8.296908591954667 2.620636510818337 0 0 0
3110 2 5.205526528301824 8.72645641251061 0.7144194675655129 0 0 0
3148 2 3.913901259466853 6.924966928646989 3.1739208458116797 0 0 0
22 1 8.58613307502236 8.5093528336759 0.2788173191749453 0 0 0
62 1 7.594635575128343 7.0420365075339095 2.7342840047142674 0 0 0
3107 2 7.652064376171704 6.973110063054669 0.8532192994217761 0 0 0
19 1 2.6590374792864955 10.681059316303962 0.5546873345106134 0 0 0
25 1 1.19243669314592 11.184109426734665 0.7021051613314682 0 0 0
3157 2 0.737846650608973 11.13676877425484 2.6721354983595766 0 0 0
74 1 1.9677444351485227 12.637744246195817 3.1707911880031245 0 0 0
33 1 0.7996744846179159 12.701596648825307 0.21776494834337853 0 0 0
1614 1 0.25010658745981984 10.082623061517294 0.1826019440908723 1 0 0
75 1 3.274167303950841 12.02287465252866 2.9117919282530877 0 0 0
26 1 6.035810817921788 10.260734783911714 0.23435156717060887 0 0 0
27 1 5.6340825389523355 11.770438243486847 0.6310483565322534 0 0 0
34 1 6.234767252999232 12.675264762762989 1.7101996373444304 0 0 0
3113 2 3.7870435545773957 12.079984604953049 1.0565662047635962 0 0 0
3114 2 7.827525563317307 10.122340289654804 0.8320439541032826 0 0 0
3159 2 9.356379027062458 10.103370852066062 3.2669941661392814 0 0 0
69 1 7.566059911638486 10.224004204973498 2.725794500545617 0 0 0
28 1 8.65415317659917 11.605571285760101 0.16786923083068028 0 0 0
3120 2 7.830496959529343 13.199860124968325 0.8483036505840789 0 0 0
3164 2 9.378094310797461 13.221747552236799 3.240516153846816 0 0 0
78 1 1.6162481444319805 14.094535102565834 2.668923456793169 0 0 0
79 1 0.3076875667263221 14.815664578381545 2.8034611956640516 0 0 0
3119 2 2.081913693505683 13.969224264255427 0.7483014237433266 0 0 0
3166 2 3.1209527944099507 15.289784065034032 3.114813811293694 0 0 0
4804 2 0.14826924535528843 16.495296715440453 1.7911003768644802 1 0 0
3167 2 5.291966145051676 14.390678607655774 1.9974867131011285 0 0 0
80 1 8.9848492747352 14.302318359406934 1.7505895584861442 0 0 0
3172 2 8.4936546649416 16.154247541626415 2.302503640672694 0 0 0
40 1 1.6695741232301031 17.531532689775425 1.9855970557411304 0 0 0
42 1 2.6396590716230364 17.447053185330788 0.8254115302073649 0 0 0
3129 2 0.8928934394895619 19.301417544218037 2.443285124031514 0 0 0
82 1 2.5307859701488744 17.083383182997775 3.1883736666088542 0 0 0
44 1 5.978086141113667 17.93055647385163 0.8671367161722394 0 0 0
3125 2 4.41405950085427 16.84192072135927 1.3055324787017102 0 0 0
3175 2 3.9607067540184953 18.46934565453283 3.095422529539948 0 0 0
3176 2 6.6276351739967225 18.273507458571345 2.5406628822600994 0 0 0
3177 2 8.781449183614498 19.240993929457822 2.4343589474677025 0 0 0
3255 2 10.031905146647192 5.477453114899503 8.464381642047146 0 0 0
3865 2 5.600107777045583 19.608483130453575 0.09158158103309573 0 0 1
3183 2 2.918770852243364 2.278686124968938 5.78918944155182 0 0 0
1670 1 1.408796270717907 2.0096850737256884 4.525595951937477 1 0 0
3181 2 0.24447750894959022 1.4172160153740314 5.701686130569946 0 0 0
84 1 4.046065504377008 0.7240638754653946 5.464582712029886 0 0 0
3133 2 4.096237152568983 0.8500826799063083 3.539038812130163 0 0 0
3182 2 5.793814458359753 1.0428639453717605 6.0513383519420945 0 0 0
89 1 6.6724738994804 2.5797471905023963 5.396363761463333 0 0 0
3139 2 6.80563748314546 2.341369693132448 3.5129646200668554 0 0 0
85 1 9.34473963646558 0.9355495020767465 5.43480240329036 0 0 0
3134 2 9.488195135667942 0.9449900469346689 3.6105999768044295 0 0 0
3184 2 8.47319305493138 2.493194201644878 5.950681082355674 0 0 0
3137 2 0.7932984060019206 3.29732165439238 3.4497059036572275 0 0 0
3221 2 0.1558696196957701 4.3685704721575735 6.340860902934886 0 0 0
92 1 1.4490879193545154 5.714342736562723 4.442892799098129 0 0 0
93 1 0.26384750321313594 4.781323647862167 4.610840059391485 0 0 0
3186 2 2.863622964609906 5.446396386635666 5.637125013138012 0 0 0
3138 2 4.042832603489298 3.8846168058403956 3.2804215126545837 0 0 0
88 1 3.851756440373974 3.889586323818257 5.18296964521202 0 0 0
94 1 6.609099240000599 5.548991844351684 5.161076372469721 0 0 0
3187 2 5.663852418230251 4.013050071471333 5.947864393067549 0 0 0
3142 2 6.73460092429291 5.509625542706237 3.3151401423375892 0 0 0
95 1 9.349176783112478 4.078991800597512 5.349863520441537 0 0 0
3143 2 9.375228443061005 3.980392365882085 3.437801096346178 0 0 0
3188 2 8.345727100506519 5.572302529663995 5.839930109403118 0 0 0
100 1 1.6747924421084441 7.299863569002763 4.866150789073263 0 0 0
105 1 0.9486254846896822 8.134834903149107 6.015041873727991 0 0 0
3193 2 0.9140345960315986 9.861632790753923 5.5266093467445465 0 0 0
65 1 1.5021619599231395 9.805410480830687 3.713253953624739 0 0 0
101 1 3.2165622160153533 7.3197345190739185 4.878207040944302 0 0 0
106 1 4.051568057282183 8.045987371287518 5.655251059278351 0 0 0
107 1 4.230180053363258 9.360645102176829 6.311316371888065 0 0 0
3191 2 5.870831846905777 7.20031715815641 5.7644373279897865 0 0 0
3154 2 6.717340311584048 8.670072139103516 3.3237939667517358 0 0 0
108 1 6.630217349006651 8.773368424465934 5.185213214936709 0 0 0
3149 2 9.32222754183589 7.156660449505846 3.3878452670757966 0 0 0
102 1 9.187673068991081 7.212111178142721 5.2760074217061685 0 0 0
3194 2 8.31699636289938 8.752175643984618 5.923119480454014 0 0 0
3153 2 3.337287612842544 10.261830803314846 3.5686055824890195 0 0 0
3202 2 1.7330329534083282 12.65127680358996 5.306141726994221 0 0 0
3227 2 2.944041602067225 10.800558611559463 6.303903557589238 0 0 0
3196 2 4.608487597631888 12.217409229529132 4.400114784591437 0 0 0
3197 2 5.638205113369153 10.3305581232577 5.6979365627874685 0 0 0
3158 2 6.697512990730092 11.815273606718387 3.3304749781060665 0 0 0
111 1 9.248697463807728 10.269838880141709 5.198568524187586 0 0 0
112 1 8.717195512731244 11.741107815384765 5.375038807545945 0 0 0
117 1 8.017108906059027 12.645994674555354 4.358153542048588 0 0 0
143 1 9.3909278132157 12.526733994049776 6.646459058823272 0 0 0
120 1 1.3379606942292988 16.094717789634757 5.929848131536014 0 0 0
3207 2 3.363661590529218 14.335430081836783 5.255481017454366 0 0 0
183 1 8.477023989814993 18.22929749776474 8.288927884226585 0 0 0
3243 2 7.57763805495583 18.214072576203105 6.6261302135512885 0 0 0
3168 2 6.480962609529317 15.82556347040884 3.43027849686334 0 0 0
3231 2 5.243810858641346 13.561971288823509 6.404856276526473 0 0 0
3210 2 6.315002861207602 16.53401185764061 5.6518328037906995 0 0 0
3203 2 7.069230708733792 14.040831476677313 4.929309184625994 0 0 0
3232 2 8.53613226912643 15.94278576236253 6.4704663400504545 0 0 0
3211 2 9.750955485538674 15.885837497642942 4.561441814184242 0 0 0
83 1 0.40951531814937847 18.696251732800473 4.235876354160436 0 0 0
3209 2 1.6336447795737354 17.5282640694167 4.8345613653759925 0 0 0
3214 2 3.4792825973386403 18.57842416727593 5.694253890266073 0 0 0
3215 2 5.663559752916668 18.687387802388795 4.766898002345799 0 0 0
3283 2 8.899319962143322 19.698655980848812 9.314965996339271 0 0 0
158 1 2.507072232325549 0.38758232192206926 8.884909761621133 0 0 0
160 1 1.5262088162154013 3.203988915332417 8.98322414149516 0 0 0
3249 2 2.9199896907733502 2.1269388555508604 8.178862592758353 0 0 0
126 1 5.699894431860287 1.211968391160094 7.987970208877475 0 0 0
161 1 4.936869613695503 2.562065902754073 8.390812880026779 0 0 0
130 1 8.408756347659082 2.586581706736275 7.792544923200757 0 0 0
3246 2 7.53335096780101 1.1120970969838424 8.519169122040479 0 0 0
132 1 2.778911325609287 5.963560005725537 7.390945451342296 0 0 0
164 1 0.3583126857599165 6.109589954009069 9.167734138673548 0 0 0
3252 2 1.5401728369552814 4.88780303916838 8.374542965216792 0 0 0
129 1 5.394291055165331 3.929119973760729 7.871208785823136 0 0 0
3253 2 4.531345730301643 5.628808895860133 8.163063228543223 0 0 0
133 1 8.289311254374258 5.5570478752061865 7.728231400641319 0 0 0
3254 2 7.338289454433253 4.06830579642654 8.241396160472547 0 0 0
3279 2 7.171230762741322 17.31414933447081 9.25531013924473 0 0 0
3284 2 0.18031781184689755 9.035343135405999 9.707510812999182 0 0 0
165 1 0.27616607795326437 7.491824150588209 8.60906248356257 0 0 0
167 1 2.9105732128305064 8.799640696822685 8.730655683327774 0 0 0
3224 2 1.8641822791063 7.659823324425788 7.628672419626928 0 0 0
138 1 5.59921186720908 7.0555094757974395 7.585104384829641 0 0 0
168 1 5.8504673649123475 9.288481790335116 9.385804515885876 0 0 0
3262 2 4.695362361620221 8.71332617895816 8.125361609958157 0 0 0
3263 2 9.971017262212488 8.456918672996544 8.332950502640795 0 0 0
141 1 8.236453544062423 8.667772416494413 7.746677087058716 0 0 0
3259 2 7.377111976624162 7.055830482890744 8.3489192470635 0 0 0
3266 2 7.696834102276652 10.077053868146464 8.909311738839415 0 0 0
171 1 0.4433389668162136 10.58086548824303 8.768371556012589 0 0 0
175 1 3.0823752477325534 12.291422164762835 9.544988935380795 0 0 0
3265 2 2.2559795665126265 10.767404185397208 8.469150142373476 0 0 0
3271 2 4.749496632857533 12.814742141242428 8.7250949724735 0 0 0
172 1 6.266878803445781 11.862784547209001 9.406258844020941 0 0 0
3228 2 6.587995099434084 11.64759468255248 7.365484067595554 0 0 0
3267 2 9.694459358893143 11.547062583730556 8.230236829529337 0 0 0
152 1 2.5022439412066158 15.394027235630771 6.5992130832820175 0 0 0
174 1 2.0565647758792567 13.36098828260665 9.510476156461186 0 0 0
3230 2 1.8812340641015535 13.728874312680002 7.626369205797307 0 0 0
3234 2 0.5036553776424039 16.58323185418075 7.545898077809867 0 0 0
153 1 5.41435030633742 15.479256725819281 6.907745773426671 0 0 0
177 1 4.076171690609589 15.665892356698643 9.50726291795426 0 0 0
178 1 5.117764408945786 14.545435562693898 9.629779112880279 0 0 0
3235 2 3.850391934468605 16.154093712564524 7.631034407336575 0 0 0
3275 2 6.464856142678311 15.276036234470183 8.479652338348956 0 0 0
179 1 8.168067446736927 14.319759616024825 9.249571738261077 0 0 0
3272 2 8.37302833074636 13.8521707225832 7.425599422419852 0 0 0
180 1 1.3017948942387512 16.811688355927906 9.101205051889266 0 0 0
3282 2 2.331217802479654 18.41730657830451 8.799244922024085 0 0 0
155 1 3.710242711687172 18.030330542528546 7.475220033330143 0 0 0
182 1 5.6950625138234905 18.39008405851768 9.54196629300301 0 0 0
3242 2 5.37039646431342 18.843023525915545 7.679707930282926 0 0 0
1798 1 0.07016678711494251 13.52475503127296 5.431977907494995 1 0 0
3216 2 8.580193620600015 20.029777188594654 5.641202291923775 0 0 0
186 1 1.3596506323907114 1.4648153549722065 11.456791567181336 0 0 0
3285 2 2.705529667447003 0.38147983723987433 10.73096660466161 0 0 0
3289 2 1.5920692973484698 3.1732604849697896 10.823717340408196 0 0 0
187 1 4.446236302965609 0.9158430460203777 11.24385976770758 0 0 0
3290 2 4.6603669704746 2.6703647401336186 10.364075946514799 0 0 0
3336 2 4.604491729606123 0.858711214811304 13.087855436459595 0 0 0
3341 2 6.490208703190786 3.2886055161272805 13.10852939854674 0 0 0
191 1 6.292009403427386 3.321405046822593 11.132233511404971 0 0 0
188 1 7.463980789523512 0.3010215640530121 10.911294369404244 0 0 0
3286 2 7.646305369151606 2.1266568597266624 10.67175205141087 0 0 0
3337 2 7.6104238622779405 0.3523217717737612 12.87643598975775 0 0 0
3342 2 9.734839609882103 3.002043631722214 12.954038911070215 0 0 0
3338 2 9.84579670246978 0.5521690218356765 13.339147430740294 0 0 0
193 1 0.2769260547291814 4.277268029704809 11.707457825748955 0 0 0
3299 2 0.6006217196127492 6.005866605798158 11.055837100570175 0 0 0
190 1 3.3090464239161403 3.812904359997486 11.233301274314638 0 0 0
3340 2 3.402123027211582 3.7764990081520913 13.230556540161366 0 0 0
199 1 5.265730031903897 6.077891751058291 11.374358988984799 0 0 0
3294 2 3.6724061810250452 5.510419316171448 10.618203121692497 0 0 0
3351 2 5.417976431611191 6.196502019365089 13.237125253716814 0 0 0
3295 2 6.668964141229872 5.060637447222645 10.657774509295455 0 0 0
3291 2 9.491270485243602 3.5543032599746534 10.762935717202794 0 0 0
3346 2 7.962923187675284 5.703948633473618 13.045041007785402 0 0 0
198 1 2.2983980772178096 6.603455797440747 11.380714297888561 0 0 0
3350 2 2.3541119762077884 6.725281686847535 13.2545912853864 0 0 0
3305 2 0.2090968318493968 9.103497969227128 12.505113850345094 0 0 0
3306 2 2.8284494871473114 8.247153482011825 10.681424061520133 0 0 0
241 1 1.453086327409418 9.412131857810541 11.132593216015492 0 0 0
203 1 4.476538492074429 8.70905430490586 11.42311056124721 0 0 0
3300 2 5.966990453516748 7.759474344282694 10.756005115017253 0 0 0
3354 2 4.671816810241642 9.253375178256084 13.22419080012422 0 0 0
3301 2 9.153041998622381 6.853250090194543 10.893617544090759 0 0 0
204 1 9.779722237010512 8.57400984319843 10.178061050498403 0 0 0
205 1 8.769091769801266 9.70292869405371 10.627004049933264 0 0 0
3307 2 7.456525394915791 9.07027290498108 11.925311561408868 0 0 0
3352 2 9.692111841700005 7.513408418711209 13.208544619523883 0 0 0
3489 2 6.175765508496247 19.95073452936926 10.654660729697026 0 0 0
247 1 1.0779248402173536 12.251115648625182 12.077816720094365 0 0 0
3310 2 2.3882837770265892 10.929032459910808 11.848825659929158 0 0 0
3316 2 0.3732045432919878 12.900288390416554 10.449233135194918 0 0 0
209 1 3.797233594004685 11.75611945722874 10.840776764235489 0 0 0
243 1 6.02027699345678 10.231309518654728 12.209108316045999 0 0 0
3311 2 5.319249535222212 10.631826107245091 10.535506197111213 0 0 0
3317 2 4.482249812966789 13.332733414042842 11.795100914564333 0 0 0
3357 2 6.626872136709737 11.713627496024284 13.146285430167506 0 0 0
249 1 7.965159920016008 12.538205754252752 12.128431795290949 0 0 0
3312 2 9.243268614734722 11.203229659246208 11.823682155830193 0 0 0
3318 2 7.335541791182702 13.125359682896251 10.391438676383983 0 0 0
216 1 1.1805003954886355 16.26369713377034 10.46337725937078 0 0 0
253 1 2.9982107258283994 14.544941876046462 12.11457120984531 0 0 0
3321 2 2.507580967890544 14.974099357305738 10.335058893415527 0 0 0
3358 2 1.6388631451271936 13.715106023275045 13.025863749142035 0 0 0
252 1 0.21539136954145943 14.945376078447303 13.233274508933233 0 0 0
214 1 5.900925078869141 14.235354260885947 10.901393976812297 0 0 0
3322 2 6.452832233027215 15.664396457843951 11.870303852598006 0 0 0
3362 2 3.6084497865760348 16.006540499294385 13.048319034608669 0 0 0
255 1 9.847601838729139 15.021811297885346 12.181799287174426 0 0 0
3323 2 9.129510770498364 15.46613947405116 10.43326642108742 0 0 0
3360 2 8.560588247822107 13.965969158707102 13.183260723027562 0 0 0
217 1 7.734201945311189 16.753416361418786 10.89276767921033 0 0 0
2008 1 0.1673724052758642 18.76081447926921 11.687445481260074 1 0 0
219 1 2.9638425277334433 18.585142923209386 10.631062331532114 0 0 0
3325 2 1.6377430960980204 17.65093110035921 11.593573599050353 0 0 0
260 1 4.952833448183526 16.865201097495554 12.10895777389107 0 0 0
3326 2 4.368905017428351 17.371004961991492 10.328007626202112 0 0 0
3366 2 5.446869196149864 18.42898885495792 13.010154535961318 0 0 0
264 1 4.00883190227075 19.579435907155975 13.28614478426293 0 0 0
3487 2 1.1100931384231307 20.079923528405516 18.182410196468393 0 0 0
220 1 9.62126607884125 19.13333681136642 10.904685385351511 0 0 0
265 1 6.858038543756507 19.355584739654006 12.161230764443813 0 0 0
3332 2 8.327206586748272 18.19199444037355 11.801209439827183 0 0 0
3335 2 1.4614220845167174 1.3759003031243189 13.390083023155057 0 0 0
225 1 3.2439804959748972 1.9889825714204135 13.844034672361843 0 0 0
291 1 3.0535590618347417 0.2957864923376918 16.353152784510442 0 0 0
294 1 1.9782882949665197 3.1098354283687852 16.40543552469948 0 0 0
3419 2 0.25137418165426934 2.49811108147613 15.960372426704891 0 0 0
3375 2 3.3001280509258795 2.0261243441041796 15.711461205302829 0 0 0
380 1 0.11181745656213003 2.5556484709465646 14.160307608765132 0 0 0
222 1 6.306971879556607 1.4788390565212537 13.585260641300094 0 0 0
295 1 4.988167857981074 2.6461412698698403 16.234331276149316 0 0 0
3368 2 6.463080878452826 1.5916177603236281 15.527023317383039 0 0 0
296 1 8.143299517151823 2.0510340649945347 16.192261275824272 0 0 0
3369 2 9.634467007917468 0.9977576248849483 15.650293047902776 0 0 0
229 1 1.9522831456130214 4.961279212630226 13.937041528817385 0 0 0
3345 2 0.2642575916627521 4.3848249611130035 13.553203443879026 0 0 0
3377 2 2.0063812512709664 4.904373716378379 15.84085662293899 0 0 0
230 1 5.121741538328385 4.400161181237325 13.79643232976966 0 0 0
298 1 3.731680804955684 5.169302318412183 16.39192801307652 0 0 0
3378 2 5.263153513566115 4.466465153214926 15.659116025048112 0 0 0
226 1 8.056007762339773 3.9401280541085546 13.75564720299876 0 0 0
3379 2 8.498245067777958 3.7646815142645833 15.511757644561188 0 0 0
3380 2 8.900629088610183 6.1257009607850375 15.577220413701575 0 0 0
235 1 1.0676375946329997 7.938693851056398 13.708455214977475 0 0 0
307 1 2.543652857915837 9.011047221664112 16.162344347618475 0 0 0
3387 2 1.8390901637880617 9.514485866456726 14.466523419976566 0 0 0
231 1 4.000745744561414 7.201787200328588 13.916719967792858 0 0 0
270 1 5.501489087148656 8.876680270312958 14.933557816529435 0 0 0
3382 2 4.049841029072719 7.876568354793143 15.896921317850653 0 0 0
236 1 8.184996667543919 8.663194752669382 13.558872166071376 0 0 0
303 1 7.57353303066524 7.221093329512145 16.140607667326137 0 0 0
309 1 9.498165483482918 9.536374228372699 16.187234339705924 0 0 0
3383 2 6.913961121802786 7.669641031059865 14.422929938978578 0 0 0
242 1 3.241836807421223 10.488340653667821 13.529629007293051 0 0 0
274 1 0.5208085264572692 10.822900298989458 14.868757285599402 0 0 0
277 1 2.347739110217676 13.149452261097426 14.740272337824754 0 0 0
3395 2 0.9965625026558512 12.407415944728578 15.802763026882957 0 0 0
248 1 5.181066871060266 12.87654503294975 13.411160109210185 0 0 0
314 1 4.423486269404881 11.471110530030456 16.162279396400944 0 0 0
3390 2 3.829449742852581 11.979344612658528 14.389052500418666 0 0 0
3391 2 5.8896539614289685 10.402814529677928 15.878865950317625 0 0 0
3388 2 8.817632927616051 10.084926230763338 14.544020404016312 0 0 0
275 1 7.324650502981421 11.234552492403887 14.872651231073613 0 0 0
3396 2 7.8488974094249295 12.685788576534733 15.818784312849527 0 0 0
330 1 7.4750833928350096 18.983878403303798 17.344870829378483 0 0 0
321 1 1.5071137688618657 15.798733956126778 15.96892492894245 0 0 0
3400 2 2.9145671834771494 14.638664426107203 15.685422651416145 0 0 0
3406 2 0.7235065465423088 16.3743196498045 14.310154267579813 0 0 0
280 1 4.343067141304382 15.54722605182398 14.705675737733449 0 0 0
317 1 6.392199427904206 13.881060495120046 16.100752394147726 0 0 0
3401 2 5.813290412928743 14.37713029761147 14.371736863838423 0 0 0
254 1 7.1637733994897035 15.269380212364215 13.507074758044023 0 0 0
278 1 9.172091507151427 13.5685251505771 14.829559787173515 0 0 0
283 1 8.365644423547028 16.289120698802204 16.09318209594074 0 0 0
3402 2 9.806471235689129 15.137099448014048 15.789432118340216 0 0 0
259 1 2.1974764344285465 17.196460543135434 13.27150514657712 0 0 0
287 1 1.3206371772701315 19.789742110429728 14.555713139582277 0 0 0
3412 2 2.708162585981183 18.660632697257764 14.231692149676238 0 0 0
372 1 9.660346964030184 17.261875624606425 18.595149875796192 0 0 0
288 1 3.359830034576968 18.154382554898046 15.926455259327598 0 0 0
282 1 6.200375730443315 18.011367929965616 14.715589283015209 0 0 0
3407 2 4.916654773519044 17.11347316981983 15.683059643594998 0 0 0
261 1 8.981007026362725 17.78535574106692 13.49760315634797 0 0 0
3408 2 7.671830812273162 16.780068773126466 14.514093943275569 0 0 0
3413 2 6.740326986146515 19.49860012367846 15.745774979527356 0 0 0
3414 2 9.623146583862658 19.27262058714759 14.434926752197834 0 0 0
333 1 1.7798487355738017 1.3942135040067463 18.98445059000951 0 0 0
3447 2 3.084960032172092 0.28193782280382285 18.183593315095166 0 0 0
3451 2 2.171058110746214 3.136053646911396 18.40821536085751 0 0 0
371 1 6.834131160150153 17.530060339460007 19.8910328267562 0 0 0
334 1 4.768925813993112 0.8681843655549545 18.79778798197574 0 0 0
3452 2 5.106740362207955 2.66156567656234 18.138285612249128 0 0 0
335 1 7.828078788143426 0.24671402933807748 18.636633815512845 0 0 0
3420 2 8.14782405044092 1.9974094084987188 18.04539988232118 0 0 0
341 1 6.8570219852783785 3.22793613690502 18.63691265369459 0 0 0
336 1 9.91197022116476 2.112209933119529 18.97082648521733 0 0 0
339 1 0.6849757565194818 4.1641713123706285 18.920738438582696 0 0 0
3423 2 0.6791949135418921 5.6889258828719695 17.80411847230882 0 0 0
299 1 3.5964849110849015 5.044541190563052 17.83871201615428 0 0 0
340 1 3.8472721745138068 3.8888986550839064 18.741659931186128 0 0 0
3427 2 6.360660684031932 6.07448697150381 17.09360247954891 0 0 0
3457 2 3.5028272568390344 6.726602236963203 18.648105330572985 0 0 0
342 1 7.123346228358612 4.6982103500989725 18.364824149261043 0 0 0
344 1 7.925180971537239 5.289025086786396 19.352615275279113 0 0 0
347 1 1.8617457993678732 7.665031884643665 18.927037507872896 0 0 0
3430 2 1.131811980361589 8.227549475788303 17.198673546824253 0 0 0
3462 2 2.5054247248585257 9.186633478527026 19.85664161909144 0 0 0
3456 2 0.23742216704628208 7.077551690318524 19.76082082581006 0 0 0
302 1 4.845328227835811 7.4127879092519935 17.54915388417883 0 0 0
3463 2 5.420107524038263 8.950511601631385 18.49284924338074 0 0 0
350 1 3.855965099919234 9.992234595166243 18.78984607000031 0 0 0
308 1 6.716460317106525 9.82717252201945 17.40738595171729 0 0 0
348 1 8.928772911437699 8.068618495964332 18.788281102474482 0 0 0
3431 2 8.169359487438088 8.644448886273123 17.135199008062685 0 0 0
3458 2 7.672347037797463 7.139503717506009 19.825470169954283 0 0 0
3464 2 9.400825048966768 9.560511211840174 19.857385897854897 0 0 0
313 1 1.6443071105786304 11.78850772116683 17.472049855275333 0 0 0
3433 2 3.125577724067613 10.518964368928362 17.0885564816176 0 0 0
3469 2 0.3335394356745986 11.010605724688716 18.552279238600246 0 0 0
3474 2 2.26946474626001 13.32123014326395 18.30918729999521 0 0 0
200 1 7.462269767100281 6.741707906207822 10.186544381674528 0 0 0
358 1 2.999341660060641 12.749878394914026 19.98503939706895 0 0 0
359 1 5.843551087739053 12.445554724349265 18.650705560330913 0 0 0
3436 2 5.023796448861109 13.032119002247907 17.028924256642213 0 0 0
3470 2 4.413972837873885 11.55096610491936 19.72584531020943 0 0 0
318 1 8.670846527559751 12.123423950104444 17.384814585275553 0 0 0
3471 2 7.305270559039814 11.267515257194896 18.435992017176517 0 0 0
3439 2 0.13310559258138624 15.039967408956745 17.014954691061305 0 0 0
364 1 0.8630024424127808 14.44776919929745 18.634316364410495 0 0 0
3479 2 1.4401661641698982 15.923597080801708 19.604160647655778 0 0 0
365 1 5.004197177381168 15.095811227951389 19.963054358639177 0 0 0
322 1 3.5840924417907636 14.182010498468696 17.37431137244306 0 0 0
326 1 5.585554866940692 16.533226991091322 17.298163862027963 0 0 0
3475 2 6.416645025395024 13.883181153692517 19.66900097451916 0 0 0
3480 2 4.2907468138013956 15.666703728398142 18.333569656748992 0 0 0
366 1 7.714013461763397 14.86965969359069 18.720188817384564 0 0 0
3440 2 7.003396547945709 15.38257959261631 17.054486797367044 0 0 0
3476 2 9.150380053197734 13.622450652850274 18.305601603240607 0 0 0
3484 2 8.324028189977808 16.388223281512953 19.554643257049882 0 0 0
3446 2 0.0897184679460935 0.7934032660967071 18.450027361961993 0 0 0
370 1 2.75238370052611 16.826031650410176 18.619572283104823 0 0 0
329 1 0.5384911969202621 18.575632707132627 17.290512975250586 0 0 0
376 1 1.8611603166019897 19.499388064011946 19.88456789407885 0 0 0
3442 2 1.9836296975805703 17.338474651560748 16.949257895402674 0 0 0
3488 2 3.2909279067522546 18.33009623294467 19.45878785199774 0 0 0
3444 2 3.855524240630015 19.77386750352577 16.89889103203919 0 0 0
3483 2 6.127980590495651 18.101116432384604 18.239010318577623 0 0 0
377 1 4.557305404011527 19.226703607027012 18.523997055394588 0 0 0
378 1 8.74955762566764 19.91728036404466 19.894945265297498 0 0 0
3443 2 8.910249095605435 17.80429418102102 17.031389226069535 0 0 0
360 1 9.778723175413836 13.20420388118665 19.996231158208133 0 0 0
244 1 10.05206564151319 11.055117741829477 13.525328244123 0 0 0
379 1 0.020822741244583057 17.171653879239805 19.912744080677278 0 0 0
353 1 1.1095762878109863 10.434888263653056 20.0934094150526 0 0 0
386 1 0.5678292667254214 2.4863422990148063 21.553985442156716 0 0 0
3490 2 1.9437050360518981 1.4021240092315603 20.801791690370496 0 0 0
3526 2 0.6668948360605601 2.5521557304890767 23.42740454945968 0 0 0
387 1 3.4611492912558797 2.113985131452212 21.522264458736775 0 0 0
3491 2 4.767498057178619 0.9349282068168281 20.66719819028759 0 0 0
383 1 6.5005057305584835 1.4195879979868269 21.13642705812527 0 0 0
420 1 8.490874633303473 2.7923851717535886 22.610594830440267 0 0 0
3492 2 7.860426534885968 0.2688396006481496 20.520477577080964 0 0 0
3522 2 6.8547996401016 1.5490534528475335 23.00687541948749 0 0 0
3494 2 6.947637293030317 3.1875577319469026 20.543456553988083 0 0 0
1211 1 9.611299166815853 0.3413322550738134 21.258815241922925 0 1 0
389 1 8.692718775410256 3.302365132043934 21.25333525190352 0 0 0
3498 2 0.7298885834050051 4.251667958849546 20.78416298594865 0 0 0
3499 2 2.662194525112519 5.364081228939035 21.46577844576849 0 0 0
3639 2 5.457790663420804 18.905969266188674 27.408210066433053 0 0 0
388 1 3.5434115598924274 3.573328491060424 21.7499036561555 0 0 0
423 1 3.6515189354946167 4.4518874890780245 22.999415706894393 0 0 0
392 1 6.152542982082351 4.319108339948898 21.695204180367924 0 0 0
395 1 4.029614689178236 6.203068243796999 20.344614954250982 0 0 0
3500 2 4.626829432544841 4.34834180924319 20.47392415714969 0 0 0
3527 2 5.402625495781441 3.753565751259081 23.444309094983076 0 0 0
3501 2 9.74358534123242 5.762065539946991 21.31860373338783 0 0 0
3531 2 6.9045663373963695 5.851910424719828 22.443718412478333 0 0 0
343 1 8.940927770846752 4.510675222301187 20.207320913261558 0 0 0
428 1 0.33131473519887794 7.5327990776554055 22.463070775732916 0 0 0
434 1 0.40777898124033907 8.974168567616774 22.69473670060484 0 0 0
3533 2 2.152635920310109 7.422498588267051 22.483150546223403 0 0 0
400 1 3.2521672928959595 8.673688808236538 21.507731252639005 0 0 0
430 1 5.433683697890133 7.0010178095901106 22.810638872410884 0 0 0
3504 2 4.853570338473074 7.586987746927962 21.192378322789814 0 0 0
3506 2 6.648476822657194 9.848104631556645 21.078743699462063 0 0 0
3675 2 7.649357293175406 17.31377823019357 28.84810742576412 0 0 0
396 1 8.321471416044984 6.927016019635474 21.545893426661216 0 0 0
436 1 7.36792499772635 9.418563327997834 22.718111443317884 0 0 0
3539 2 8.806080841243153 8.28334395011641 22.57629764030249 0 0 0
407 1 0.2857318320359183 13.043498761316206 21.376722333397264 0 0 0
439 1 2.4304701499377948 11.284270575452178 22.64242515598426 0 0 0
3508 2 1.678746315103189 11.926909865592563 21.05557277910263 0 0 0
404 1 5.174233926666193 11.109000548182165 21.36204477526929 0 0 0
3544 2 3.937310047680274 10.156233192811161 22.342837274204488 0 0 0
3550 2 5.743071154736457 12.60783425140891 22.349397606143324 0 0 0
441 1 9.287650148228296 11.82096256494558 22.684616160583904 0 0 0
3510 2 8.51626733743111 12.290702785202303 21.039717406026142 0 0 0
2097 1 0.07080775269698697 7.422929401395044 25.519386355414987 1 0 0
538 1 9.039616626691672 18.07176129908019 27.829986440482212 0 0 0
410 1 2.210916747531887 15.435767503497742 21.199091571097906 0 0 0
3555 2 0.9958867017067666 14.588416908460378 22.3074603053985 0 0 0
444 1 4.314321580900706 13.730712476323161 22.633065785074955 0 0 0
448 1 6.324899890546236 16.107112228209516 22.56339373640936 0 0 0
3512 2 3.6989367265796274 14.238189345873083 20.90560881249835 0 0 0
3515 2 5.485494475388175 16.670884766475204 20.906855128438472 0 0 0
408 1 7.1640675909519995 13.43140858371321 21.311462513099542 0 0 0
411 1 9.071695565331439 15.893268449904268 21.262481875103536 0 0 0
3557 2 7.794853619238634 14.966981013950512 22.27667523516273 0 0 0
459 1 1.2694877794829258 18.110705190665694 22.630779029509814 0 0 0