 # File generated with Atomsk by HW on 2025-06-15 19:46:02
  
         129  atoms
           3  atom types
 
      0.000000000000      11.368800000000  xlo xhi
      0.000000000000      11.368800000000  ylo yhi
      0.000000000000      11.368800000000  zlo zhi
 
Masses
 
            1   12.01100000             # C
            2   28.08500000             # Si
            3   132.90545190            # Cs
 
Atoms # atomic
 
         1    1        2.619087300000       1.424669803200       0.677660061600
         2    1        1.732923446400       4.918677213600       2.186390772000
         3    1        2.806445124000       2.600942695200       5.636150812800
         4    1        3.547702252800       5.457990348000       5.618358640800
         5    1        4.869529891200       0.170452418400       4.962685838400
         6    1        2.658821256000       3.930592068000       2.925817524000
         7    1        0.963812757600       1.317450650400       2.994780664800
         8    1        2.893632451200       4.069314165600       6.401418847200
         9    1        3.657047371200       4.000396500000       7.760763525600
        10    1        4.347395013600       5.396621565600       7.950815755200
        11    1        4.800214317600       0.444770193600       8.510240296800
        12    1        2.794337352000       1.156411598400      10.472347382400
        13    1        4.084696152000       5.647303605600      10.553554720800
        14    1        2.247475334400       3.851726702400       8.587707300000
        15    1        2.746474704000       6.110297985600       2.316267943200
        16    1        3.453864177600       8.412684624000       0.002455660800
        17    1        2.871235915200      11.266992396000       1.017416649600
        18    1        1.186470705600       6.932682871200       4.366437753600
        19    1        5.578385940000       8.806863657600       5.442596992800
        20    1        2.241199756800       7.659149191200       7.430840949600
        21    1        4.817790482400       5.960980166400       6.534558864000
        22    1        2.555422020000       9.457500081600       9.206249601600
        23    1        3.604921423200       8.561979705600       9.874700935200
        24    1        5.480864373600      10.596892586400      10.806942535200
        25    1       10.533625214400       1.675204048800       0.160243236000
        26    1        9.649030255200       0.947418948000       1.407173220000
        27    1       11.329645852800       5.148793094400       1.101204705600
        28    1        7.545529404000       0.426887071200       3.336981544800
        29    1       10.001849594400       2.477659428000       4.363641028800
        30    1        9.494948908800       4.735332576000       5.505887102400
        31    1       10.835864762400       5.291949024000       8.464412664000
        32    1        8.112150396000       5.192608449600       8.248246300800
        33    1        8.545324413600       3.438868730400       5.868165283200
        34    1        9.318175437600       2.109242095200       5.720279932800
        35    1       10.415025892800       1.280138248800       9.805499049600
        36    1        9.503270870400       2.963186769600      11.070914702400
        37    1       11.287558555200       2.209833237600       8.859489832800
        38    1        5.851384934400       2.802989008800      10.218652610400
        39    1        6.012219348000       3.468598142400       8.708182473600
        40    1        5.723440459200       5.051749017600       8.610206155200
        41    1        7.281000165600       5.988253917600       1.368132760800
        42    1        8.641458986400       5.756625986400       1.986027040800
        43    1        7.135013404800       9.814082493600       1.374215068800
        44    1        9.708159384000      10.643061283200       1.395145029600
        45    1       10.031704063200       8.944312449600       2.698180041600
        46    1        5.733581428800       7.446996014400       1.905228979200
        47    1        5.808865622400       9.892970596800       2.186606779200
        48    1        7.262525865600       6.393699432000       4.470052996800
        49    1       10.315924063200       6.821063992800       3.291983834400
        50    1        9.929123380800       9.848609539200       5.287230972000
        51    1        9.484034860800      11.027599574400       4.297179024000
        52    1        5.740743772800       8.617323024000       3.048304975200
        53    1        6.828328656000       7.341720926400       8.078134946400
        54    1        7.800406531200      10.517515624800       6.173542620000
        55    1        5.981375793600      10.563149988000       8.190083520000
        56    1        8.525508595200       9.206954467200       5.797212602400
        57    1        6.832046253600       5.732228541600       7.704772185600
        58    1        7.912946282400       6.045484456800       9.792140709600
        59    1        6.836843887200       6.954681499200       9.588741508800
        60    1        7.006261744800       8.278066663200      10.511410579200
        61    1        8.440811035200       8.686570384800       9.937877356800
        62    1        8.876815884000       9.365333220000       8.544301221600
        63    1       10.725723828000       9.713832415200       8.550872388000
        64    1        5.688720144000       5.750577784800       9.856317585600
        65    2        1.311368342400       4.330125806400       0.421702898400
        66    2        0.817314400800       2.099317132800       0.991097877600
        67    2        3.715573953600       2.883741595200       1.704126276000
        68    2        1.801818374400       2.730501540000       4.077488332800
        69    2        4.663891036800       2.028898785600       5.436537422400
        70    2        3.893870844000       5.305375576800       3.810708072000
        71    2        0.280297764000       5.464925316000       3.121281302400
        72    2        5.679511416000       0.076466548800       3.255512724000
        73    2        2.156343033600       1.367120937600       6.747996715200
        74    2        4.786423963200       2.452227422400       7.809626628000
        75    2        1.003217018400       4.449418624800       7.094813328000
        76    2        1.731536452800       2.212027416000       9.192413772000
        77    2        4.620632752800       0.993599013600      10.293720796800
        78    2        2.209503542400       5.174884490400      10.028111522400
        79    2        4.703750049600       3.839039121600      11.268174751200
        80    2        4.155080392800       6.712946704800       0.797851015200
        81    2        4.489732389600       9.926644982400       0.851273006400
        82    2        1.755410932800       8.474371732800       0.660527280000
        83    2        1.769076230400      11.052440402400       2.583116416800
        84    2        4.012379215200       8.860558500000       4.074191380800
        85    2        2.898566510400      10.918379512800       4.924498039200
        86    2        2.366267925600       7.731250120800       3.144121221600
        87    2        1.886106657600       6.368256057600       6.057478540800
        88    2        3.300442221600      10.858124872800       7.877327832000
        89    2        5.217381064800       7.737230109600       7.203987914400
        90    2        3.202249896000       8.967641227200       6.453078674400
        91    2        0.173078611200       6.694358716800       9.308682489600
        92    2        5.407251393600       9.189457884000       9.474541912800
        93    2        3.443029711200       7.004215360800       8.854226078400
        94    2        1.935595044000      10.681271820000      10.559227752000
        95    2        0.902637244800       8.615401696800       8.639253439200
        96    2        7.864572038400       1.566256838400       1.815517778400
        97    2        9.676997503200       4.326237676800       1.145281543200
        98    2        5.713049376000       2.321133789600       2.746247328000
        99    2        6.139265688000       5.633865684000       2.840551524000
       100    2        8.159649242400       0.824124312000       5.304977668800
       101    2       10.492401945600       0.992632665600       3.373157066400
       102    2        6.912219031200       3.243973392000       4.778863711200
       103    2        8.627952852000       3.506626778400       3.134173521600
       104    2       11.168606800800       3.895382894400       4.854807295200
       105    2       10.884705127200       1.773726069600       7.012969336800
       106    2        7.960933987200       3.269200759200       7.847325568800
       107    2        6.401100520800       5.369848041600       5.926771447200
       108    2        8.666083807200       1.391950396800       9.236217758400
       109    2        7.470847756800       2.488664426400      11.154509488800
       110    2       10.161831348000       3.915266925600       9.403509650400
       111    2        7.059251721600       4.949407080000      11.212763220000
       112    2        7.155397663200       7.934797116000       0.816984705600
       113    2        7.186570912800      11.156942412000       0.060391065600
       114    2        9.549769262400       7.467255216000       1.609196796000
       115    2       11.321790012000       6.824031249600       0.298408262400
       116    2       11.365957800000       9.933568581600       1.803944340000
       117    2        7.229829196800       8.532102499200       4.519962028800
       118    2       10.791435492000       8.372257171200       4.373827473600
       119    2        8.816799988800       5.807035245600       4.121963078400
       120    2        8.390037974400      10.158159225600       2.865869841600
       121    2        8.468971552800       7.856204601600       7.315504473600
       122    2       10.713888907200      10.742276800800       6.780022624800
       123    2        7.993153166400      10.983806956800       8.135649705600
       124    2        5.742062553600      10.477474711200       6.210559432800
       125    2        9.541981634400       5.707762884000       7.123906087200
       126    2       11.078156628000      11.039468601600       9.878566327200
       127    2        9.406158580800       7.071905196000      10.088684488800
       128    2        9.139207788000       9.908068363200      11.075382640800
       129    3        5.063004129600       3.999998592000       4.775998773600
