 # File generated with Atomsk by HW on 2025-05-24 16:35:12
  
         129  atoms
           3  atom types
 
      0.000000000000      11.502400000000  xlo xhi
      0.000000000000      11.502400000000  ylo yhi
      0.000000000000      11.502400000000  zlo zhi
 
Masses
 
            1   12.01100000             # C
            2   28.08500000             # Si
            3   132.90545190            # Cs
 
Atoms # atomic
 
         1    1        4.250884456000       4.366771136000       0.719026526400
         2    1        2.089399457600       3.558842560000       1.649018571200
         3    1        1.626761427200       5.168292875200       1.466256937600
         4    1        2.481102187200       2.848327809600       0.090155811200
         5    1        3.133598832000       1.325536576000       0.230692134400
         6    1        0.123271220800       5.431502294400       1.057208588800
         7    1        3.670392835200       3.956066441600       4.254726257600
         8    1        2.900962792000       5.228691977600       4.613497616000
         9    1        5.127367336000       2.093563326400       5.682116585600
        10    1        3.773028750400       4.522927718400       6.887752144000
        11    1        3.603954972800       1.927480172800       6.464406312000
        12    1        3.372561192000       0.563974174400       7.136215486400
        13    1        3.365912804800       3.119899473600       7.416977568000
        14    1        0.783209918400       4.939153564800       8.129424721600
        15    1        2.265708244800       4.860914240000       6.057474404800
        16    1        1.327399964800       3.703600264000       6.080341176000
        17    1        2.218272347200       0.263565993600      10.862233928000
        18    1        3.281174624000       3.953765961600      10.923139136000
        19    1        4.459192920000       1.320210964800       9.681995668800
        20    1        4.592344702400       1.148733185600      11.203314595200
        21    1        5.642525324800       4.311536611200       8.876551611200
        22    1        2.229544699200      10.426603532800       0.225861126400
        23    1        2.619522068800       8.548928752000       2.171538096000
        24    1        5.348754028800       8.950730588800       2.083740276800
        25    1        3.920570035200       9.607264576000       2.227623798400
        26    1        3.515996120000      10.524166889600       1.103896830400
        27    1        4.238691912000       5.910922326400       0.566493200000
        28    1        2.596528771200       6.041313532800       0.532906192000
        29    1        1.543438041600       9.306764376000       2.810887497600
        30    1        3.253246796800       7.362651732800       3.099206656000
        31    1        4.847755494400      10.900272364800       4.701525483200
        32    1        2.280523336000       7.938726432000       7.840081849600
        33    1        0.868189649600       8.674684491200       7.701086848000
        34    1        4.951047046400       9.400531940800       7.258336467200
        35    1        0.115852172800       6.944516488000       6.212388728000
        36    1        2.228751033600       9.165192836800      10.959233667200
        37    1        5.008501534400       6.392527814400      10.770939379200
        38    1        3.948727910400       6.307237518400       9.631684171200
        39    1        0.791342115200       9.389696680000      10.038673590400
        40    1        0.840238817600       5.773974752000       9.551903524800
        41    1        6.672450220800       0.551712616000       0.567068320000
        42    1        5.845715220800       4.021906179200       0.433755504000
        43    1       10.284732931200       1.387994608000       5.280981888000
        44    1        7.559009203200       2.885469059200       2.994293265600
        45    1        9.814675852800       2.828992275200       5.621740488000
        46    1        6.829607512000       4.341845435200       5.978936017600
        47    1        9.464726835200       6.585319540800       1.601513659200
        48    1        6.216150012800       9.233114508800       0.734221196800
        49    1        6.360217572800       6.157372748800       2.866087515200
        50    1        8.905112070400      10.518220148800       2.739906187200
        51    1       10.207459808000      11.304374681600       2.106676062400
        52    1        7.940946395200      11.323146598400       0.107581947200
        53    1        8.365580496000       7.938634412800       4.285437665600
        54    1        6.954132494400       8.325069043200       4.797156436800
        55    1        7.732292859200      11.250382416000       3.467214441600
        56    1        6.525507060800       6.525668094400       7.286379318400
        57    1       10.771157924800      11.287799723200       7.648428860800
        58    1       10.673767104000       6.899898678400       7.557536896000
        59    1        9.257327060800       7.361685531200       7.391212192000
        60    1        8.557118460800       8.893080560000       7.511941382400
        61    1        7.018430910400       5.914867649600       5.868098891200
        62    1        7.258819568000       6.442425225600      10.157596904000
        63    1       11.303051905600       9.980022852800      11.036000684800
        64    1        8.141789801600      11.351661048000       9.996103208000
        65    2        3.114263297600       0.662837302400       2.094587040000
        66    2        3.923491644800       3.754521388800       2.505130700800
        67    2        1.312228299200       2.080151528000       2.832385483200
        68    2        2.354150198400       2.563792940800       4.939866713600
        69    2        5.028124628800       3.940285148800       5.490406084800
        70    2        4.763822481600       1.185057764800       3.976345172800
        71    2        1.399635036800       3.132138027200       7.901792225600
        72    2        0.205639907200       1.129478168000       6.582547462400
        73    2        4.758968468800       5.615793747200       7.885470320000
        74    2        4.004388024000       3.082723716800       9.358111089600
        75    2        1.025323936000       2.788492324800      10.530619736000
        76    2        2.437393067200       5.421184641600      10.359521536000
        77    2        0.264992291200       0.452285870400      10.574915478400
        78    2        2.083625252800       7.765511790400       0.615884505600
        79    2        5.137880529600      10.852732945600       0.209205651200
        80    2        4.730281483200       7.038997201600       1.933656961600
        81    2        0.601287960000      10.307277635200       1.513543304000
        82    2        0.193815440000       8.052841742400       3.424954624000
        83    2        3.062249444800      10.269802816000       4.094900409600
        84    2        3.916003582400       6.974871321600       4.987360123200
        85    2        1.846710320000       6.035838390400       3.083482875200
        86    2        1.572309065600       6.237325931200       7.050557113600
        87    2        4.942753816000      11.227768697600       6.492575689600
        88    2        1.867081070400      11.016228059200       6.183483196800
        89    2        0.386273596800       8.780219011200       5.782900614400
        90    2        3.072751136000       8.838674208000       6.405571536000
        91    2        0.965223896000      10.385689496000       8.502252012800
        92    2        5.150993265600       9.860282868800       9.139036379200
        93    2        3.306675444800       8.140444020800       9.425618675200
        94    2        0.127987204800       7.645737299200       9.213054323200
        95    2        3.234313846400      11.458771396800       8.985835913600
        96    2        6.581891825600       1.099870990400       2.577296758400
        97    2        9.624863248000       0.572531960000       0.700542169600
        98    2        9.079707000000       2.739147028800       2.016106164800
        99    2        6.323191347200       4.245374806400       2.247983046400
       100    2       10.093217971200       4.835746988800       2.180107384000
       101    2        8.453872918400       0.474048411200       5.152327544000
       102    2        7.955577448000       3.352316968000       4.754597556800
       103    2       10.709321022400       1.238612939200       3.343989230400
       104    2       11.132678356800       3.903281928000       5.366065140800
       105    2        6.621299048000       1.525712843200       6.849161592000
       106    2        9.442308657600       2.807689830400       7.703686390400
       107    2       10.217455393600       4.976582374400       8.167152593600
       108    2        7.110013019200       3.726754595200       7.905369472000
       109    2        6.522850006400       0.508567113600       9.162558787200
       110    2       11.020150377600       4.884632188800      10.771767552000
       111    2        9.663028211200       0.724582185600       9.100434324800
       112    2        6.154876728000       5.059031577600      10.454197790400
       113    2        6.306248312000       2.207448588800      11.193399526400
       114    2        8.035760678400       7.210613009600       2.537061363200
       115    2       11.306629152000       7.419646124800       1.067698777600
       116    2        8.027122376000       9.539354406400       1.288855422400
       117    2        5.979258084800       6.553377376000       4.546933227200
       118    2        9.594945505600       9.349116212800       3.975206435200
       119    2        8.994945814400       6.793259928000       5.497687104000
       120    2       10.895303328000       5.890091480000       4.443342612800
       121    2        6.416199753600       9.881217236800       3.891066379200
       122    2        8.138224057600       6.042026681600       8.396257396800
       123    2        6.603665868800       8.374322320000       6.826501864000
       124    2        9.791406497600      10.147394275200       6.546153868800
       125    2        6.235382025600       8.118140867200      10.669741264000
       126    2        8.293748008000       9.276386537600       9.380460252800
       127    2        8.890204960000       6.262573699200      11.358343942400
       128    2        9.842235603200       8.641039971200      10.955587406400
       129    3        6.289995420800       4.638998436800       4.139000611200
