 # File generated with Atomsk by HW on 2025-06-01 21:13:34
  
         129  atoms
           3  atom types
 
      0.000000000000      11.642890000000  xlo xhi
      0.000000000000      11.642890000000  ylo yhi
      0.000000000000      11.642890000000  zlo zhi
 
Masses
 
            1   12.01100000             # C
            2   28.08500000             # Si
            3   132.90545190            # Cs
 
Atoms # atomic
 
         1    1        3.873938789700       1.788243117990       1.038033500840
         2    1        5.511534553980       1.153542612530       0.936949929860
         3    1        2.935428712580       3.981402664400       0.336887022150
         4    1        5.527869528650       4.359715089170       2.252037641140
         5    1        2.865815873270       3.258123051820       3.562945554910
         6    1        3.514720704530       0.674228117010       4.288774960400
         7    1        3.662888122670       2.230183936610       4.503562995120
         8    1        2.252538285410       0.163373032480       4.886357932540
         9    1        3.229330184850       5.769797139960       5.735555400470
        10    1        4.978231977530       3.148854529170       6.080592445620
        11    1        1.868637273440       1.058979059950       6.237724889060
        12    1        0.267821398670       5.125817251170       7.459401693870
        13    1        0.180639438350       0.662585227010       7.722682365440
        14    1        0.300456419340       1.214434927230       6.005984806500
        15    1        2.775141045950       5.055796910710       8.716519455840
        16    1        2.138892036120       2.806716563630      11.332257694800
        17    1        3.243441367530       1.514076344270      11.273950101680
        18    1        4.175594426710       1.985811318400      10.223633351890
        19    1        0.538867877870       5.247485451670       9.095937955160
        20    1        4.161599672930       5.384347623620       9.244850518260
        21    1        0.789760514480       6.348041271810       1.139023928700
        22    1        0.890681085000       9.909741037490       2.583079932510
        23    1        5.199796174230      11.342980796490       1.588520982930
        24    1        5.441921714670      10.372429486090       0.247190197590
        25    1        3.279254897170       8.876760550910       0.157912517070
        26    1        2.718614815000       8.506842649830       4.904462626490
        27    1        5.585816192180       9.347401093380       3.986723465130
        28    1        1.769265207290       7.316450290450       7.925489866350
        29    1        4.988594149630       8.027376796740       7.444789866920
        30    1        2.354693002270       6.825970263420      10.480091289920
        31    1        1.976590149520       8.268675691990      10.961815863670
        32    1        1.726244728740       6.255352224520       9.140180937160
        33    1        5.161199993880       8.406329580460       8.947840394360
        34    1        2.451084488580      10.429060503050       9.281013334600
        35    1        4.056161661090       9.994477990910      11.212475642480
        36    1        8.840504591450       4.675703123770       1.107553197030
        37    1        7.795101141240       3.542651997640       0.467322318820
        38    1        8.249569709500       5.198713385460       2.507086789480
        39    1        7.422412232340       0.829660698510       2.795760604140
        40    1        7.366386645660       1.379566036100       4.293036258140
        41    1        7.806348172980       4.002196865940       3.549940446780
        42    1       11.453984109750       0.206707869060       4.981992631000
        43    1        6.568732251760       3.410959268850       3.002282186960
        44    1        7.172148311790       3.484006760710       8.539745456970
        45    1        9.616316923710       1.506240679300       9.919881994680
        46    1        7.122083884790       6.214019965020       2.236098524730
        47    1        6.785942007600       6.330868009060       0.660931936630
        48    1        9.718716141260      11.226458753370       0.987317072000
        49    1        9.068821664350       7.748529581240       2.209936950900
        50    1        6.206021299590      11.193625803570       2.741958809450
        51    1        6.302866858610       9.081139841970       0.727086837610
        52    1        8.324014348160       6.096810991390       0.074549424670
        53    1        7.903030731540       7.103234045880       4.352228710900
        54    1        8.696540256600       9.947044857050       4.816617021440
        55    1       10.697638689570       8.628161563630       4.203176433120
        56    1        8.566128245710       9.858430821260       3.366739572630
        57    1        8.459549230650       8.600835700800       5.806658529700
        58    1        9.796583789580       8.898730684340       2.922330461330
        59    1        7.718316281690       7.531191753610       2.946023742480
        60    1        6.019292629770       6.960655214940       6.674472978740
        61    1       10.575108915210       7.836270400280      10.722635974400
        62    1        7.657947897040       9.032658848010      11.222453599210
        63    1        6.536236945770      11.066427230320      10.744838965630
        64    1        6.086704962870      10.510886733970       9.343267867430
        65    2        3.915620335900       3.289209568120       1.995835846690
        66    2        0.440322456910       2.607169071920       0.895408098340
        67    2        1.992471051480       5.471168654350       0.148726276860
        68    2        3.286997419020       0.397837551300       2.363355312430
        69    2        1.206762262720       2.457394934960       3.031924984900
        70    2        2.911619002530       5.305909473690       3.893580345130
        71    2        5.615295989660       2.215164608510       4.392012466030
        72    2        5.149126316950       5.319764512790       5.905716237820
        73    2        3.427527101320       2.043280623440       8.567048034020
        74    2        2.054213297150       0.184493234940       7.779278453730
        75    2        3.086693139460       2.682358855540       6.252231930000
        76    2        2.234992450180       4.585552226500       6.849710116130
        77    2        5.701453375660       5.105162764310       8.304710436540
        78    2        1.639540126910       3.644026640870       9.696082363100
        79    2        4.509989870400       3.893475559120      10.759054934320
        80    2        0.528540634440       8.071456778280       0.385042015190
        81    2        5.030659911200       7.614543203120       0.583343717670
        82    2        2.647919186920       9.848941865910       1.659437825920
        83    2        5.082726915280       6.245153052880       2.668794888690
        84    2        1.105981406880       6.433581584640       2.910408141970
        85    2        0.930592911920       8.578073850850       3.826703584970
        86    2        3.974440216180       8.388620744770       3.543269070810
        87    2        5.454018677380      11.420336157650       4.651264697660
        88    2        2.860308786300      10.282150517030       5.741679560610
        89    2        1.082951770460      11.577352172190       3.502553884480
        90    2        3.094307589520       7.512551486720       6.748510116250
        91    2        5.078325902860       9.910020466850       6.618167962700
        92    2        4.272381771280       7.018636807140      10.085164461120
        93    2        1.596286790560       8.877039980270       9.117628659230
        94    2        4.330188720130      10.155662160070       9.133695847430
        95    2        2.670459821960      11.408157694710      11.248591887260
        96    2        7.115994653320       2.107758948260       1.651276160030
        97    2        6.140867687150       4.678613846270       0.375436630940
        98    2       10.752453415690       4.979955125250       0.821790104870
        99    2        9.001071687440       0.014483755160       2.594711179620
       100    2       10.364896536260       1.248711595390       0.022284491460
       101    2        8.855989635150       2.662787157450       4.476248775180
       102    2       11.357115264950       2.783325997620       5.135550707210
       103    2        7.298636668750       5.392637361300       4.812611867280
       104    2       10.587648307740       3.872739572030       7.197506526210
       105    2        8.448395342030       4.293467045070       6.916330732710
       106    2        5.878273946090       2.182343301600       7.601247022740
       107    2        8.006629166760       2.801966264510      10.302909789900
       108    2        8.332280800060       5.379830182300      10.077142509910
       109    2        5.923099072590       1.114783431720      10.679068280020
       110    2       10.648971409370       5.756978318070      10.136369891340
       111    2       11.207038412850       2.097152275470       8.849248401840
       112    2       10.942907810310       9.669979003720       1.442600642560
       113    2        8.984643569650       7.764643341000       0.159950022820
       114    2        6.741279881560       9.422544305440       2.616390240800
       115    2        6.622976476270       8.225690142110       5.445833725710
       116    2        9.645482363160       7.382500405420       5.204651259360
       117    2       10.508139011930      10.350750424910       5.375103168960
       118    2        9.935541681730       6.228736577980       3.017243300610
       119    2        7.695927004220      11.509485766380       5.505934323890
       120    2        7.594505789430       6.566927603810       7.785402613870
       121    2        6.802032481580      11.552308315800       7.891131697960
       122    2        8.574499483620       8.784735148350       7.761918904740
       123    2       10.804299204860      10.758472789820       7.693644997780
       124    2       11.597680658130       6.927216834860       7.029592766630
       125    2        7.050992398450       8.905658203890       9.464551852560
       126    2        8.334492949160      10.801563125710      11.416342646380
       127    2       10.961571362980       8.415667178240       8.887460366820
       128    2        8.986459860490      11.454880612280       8.970590601420
       129    3        6.844994745680       3.778001376100       5.866002340030
