 # File generated with Atomsk by HW on 2025-05-24 16:41:30
  
         129  atoms
           3  atom types
 
      0.000000000000      11.240000000000  xlo xhi
      0.000000000000      11.240000000000  ylo yhi
      0.000000000000      11.240000000000  zlo zhi
 
Masses
 
            1   12.01100000             # C
            2   28.08500000             # Si
            3   132.90545190            # Cs
 
Atoms # atomic
 
         1    1        1.565844400000       1.002776600000       1.219124120000
         2    1        2.085020000000       1.789835120000       2.463189800000
         3    1        4.594192640000       4.252193160000       0.288912960000
         4    1        4.498618920000       0.593101080000       1.756531000000
         5    1        2.265242160000       3.208154520000       0.166138440000
         6    1        2.405584800000       3.322633920000       1.753912080000
         7    1        1.306425200000       4.414049160000       2.548827360000
         8    1        1.850104000000       1.872347960000       5.255408120000
         9    1        5.293826440000       0.705310000000       4.567441440000
        10    1        2.410654040000       1.963481880000       8.144717560000
        11    1        5.139265200000       4.838201800000       8.292366200000
        12    1        4.796872320000       2.493695160000       7.328345120000
        13    1        4.921377800000       3.091618200000       5.831401920000
        14    1        2.299018360000       0.567046760000       5.808247520000
        15    1        3.686854880000       3.229252000000      10.600769960000
        16    1        2.200645880000       1.494447920000      11.205684280000
        17    1        0.596832760000       6.280765880000       0.594326240000
        18    1        1.692193240000      10.611211920000       1.512016040000
        19    1        3.251776960000       7.990628400000       4.279978440000
        20    1        2.927233200000      11.029913160000       4.511691040000
        21    1        2.203017520000       5.879913760000       5.501373040000
        22    1        5.084515160000      11.041838800000       5.974262320000
        23    1        3.999169520000       8.815970360000       6.976128480000
        24    1        2.550861800000       6.672198880000       8.093283320000
        25    1        4.820116640000       7.493528160000       6.863829640000
        26    1        1.287823000000       7.192858160000       5.670647440000
        27    1        1.728835640000       8.792062880000      10.485739800000
        28    1        0.533708920000      10.860256600000       8.434878160000
        29    1        7.182685960000       2.057605640000       2.360310080000
        30    1       10.571703320000       2.351880080000       2.418072440000
        31    1       10.837956440000       4.889119000000       0.408956160000
        32    1        5.857276400000       2.222620080000       4.929830280000
        33    1        6.730748040000       4.598879720000       3.842247880000
        34    1        6.961999800000       5.148920360000       5.182561680000
        35    1       10.814667160000       5.013186120000       4.882532360000
        36    1       10.035397960000       5.571836600000       3.410238480000
        37    1       10.556203360000       0.047185520000       4.531934280000
        38    1        8.265615000000       0.413766880000       6.137646960000
        39    1       10.432113760000       2.543881760000       6.506510040000
        40    1        7.267334400000       4.463336560000       7.825928680000
        41    1        8.033655120000       3.594596960000       6.959605680000
        42    1        8.297278080000       4.451590760000       5.736727400000
        43    1        9.900147040000       1.867447320000       9.428730200000
        44    1        9.457954200000       4.892491000000       9.061811640000
        45    1        6.293410880000       4.436798920000      11.211326760000
        46    1       11.180574120000       2.093382560000      10.169794640000
        47    1        7.664994360000       7.509578880000       1.015151840000
        48    1        7.994034120000       7.025606960000       2.631913440000
        49    1       10.937340520000       7.420580560000       1.127068520000
        50    1       10.172424800000      10.557911840000       0.701162440000
        51    1        6.628149320000       7.455806720000       3.595316320000
        52    1        8.951974360000       8.154923480000       3.195127360000
        53    1        9.231187200000      11.028272120000       3.550940800000
        54    1       11.176921120000       9.734851600000       5.022987400000
        55    1        8.597453520000       8.514727120000       4.574354040000
        56    1        9.945657800000       8.699591400000       5.574601640000
        57    1        6.177931120000      10.988729800000       3.514264680000
        58    1       10.234694400000       6.814351160000       7.957459160000
        59    1        8.702289000000       6.020638560000       6.322949600000
        60    1        6.600004360000      10.349679600000       6.269289840000
        61    1        6.545535320000       9.948917400000       8.895954200000
        62    1        6.960156440000      10.317510720000      10.470003800000
        63    1        8.892132600000       8.488920080000       9.676763280000
        64    1       10.092587080000       8.290612760000       8.488740240000
        65    2        4.131127120000       3.966337480000       1.992424880000
        66    2        0.590853080000       1.438832400000       3.716168800000
        67    2        3.790543880000       1.036249320000       3.448083560000
        68    2        3.345260040000       2.989929920000       4.676469440000
        69    2        1.464740600000       4.563788440000       4.415634000000
        70    2        1.253507280000       2.676828480000       6.794636200000
        71    2        3.701152160000       0.856375600000       6.951186920000
        72    2        1.932841640000       5.099756600000       7.282778160000
        73    2        1.384633120000       1.041487160000       9.494416760000
        74    2        0.716021720000       3.900785800000      10.632253200000
        75    2        3.722811640000       3.597710440000       8.595632640000
        76    2        4.135432040000       1.616390680000      11.210067880000
        77    2        1.935764040000       6.166466320000       1.919949360000
        78    2        3.926918800000       7.999519240000       2.460604600000
        79    2        3.607298160000      10.098589240000       1.213695200000
        80    2        0.470337800000       9.302729800000       0.779775000000
        81    2        1.187550960000       8.319330960000       4.275178960000
        82    2        5.242819320000       6.009095080000       3.197813720000
        83    2        1.384531960000      10.570905280000       3.259442640000
        84    2        4.040296680000       9.666298840000       5.177728480000
        85    2        4.060798440000       6.589910840000       5.305201320000
        86    2        2.035361680000       8.348060400000       7.198118480000
        87    2        0.791992880000      10.550628320000       6.481073920000
        88    2        4.575804000000      10.182035000000       8.243955520000
        89    2        1.834390480000       6.788161960000      10.171851560000
        90    2        0.580197560000       9.148067400000       9.058529560000
        91    2        5.359108360000       8.084662240000      10.449142360000
        92    2        3.359118960000       9.657666520000      10.216384440000
        93    2        4.511837160000       6.674120920000       8.521358720000
        94    2        0.025290000000       5.622866200000       8.811474360000
        95    2        3.959582240000       6.182236040000      11.127600000000
        96    2        6.369989000000       0.418206680000       1.813585240000
        97    2       11.003015840000       1.255069640000       0.839425680000
        98    2        7.690273120000       3.331985600000       0.932627760000
        99    2       10.782813000000       4.244853440000       2.124135200000
       100    2        8.082391760000       5.185675160000       2.720372240000
       101    2        8.894380600000       1.733691320000       3.316867800000
       102    2        9.738223600000       3.636151240000       5.012882640000
       103    2        6.141918160000       2.998157600000       3.408721080000
       104    2        7.173244360000       2.000090560000       6.029124760000
       105    2        9.513996840000       3.214370240000       8.069106080000
       106    2       10.065397520000       0.883902360000       6.157519280000
       107    2        5.667848680000       4.865290200000       6.473318320000
       108    2        6.248608240000       1.784586040000       8.153125080000
       109    2        9.934777480000       0.230285120000       8.421187840000
       110    2        6.331087360000       0.842977520000      10.388120400000
       111    2        9.135265040000       4.987794960000      11.007500600000
       112    2        6.475229120000       4.243740680000       9.411398120000
       113    2        8.744888600000       1.685617840000      11.029620920000
       114    2        6.365403080000       6.268817760000       0.594371200000
       115    2        9.053156840000       9.692544240000       2.098148320000
       116    2        6.691160760000       9.386220520000       0.999955360000
       117    2        7.643998040000       6.970598400000       5.272807640000
       118    2        7.708628040000      10.301909600000       4.652101120000
       119    2        5.878250240000       9.190779400000       3.485220520000
       120    2       10.547301280000       7.290297720000       3.034563960000
       121    2        6.488526040000       8.431820880000       6.651348680000
       122    2        8.199062960000       6.158036320000       8.105400040000
       123    2       10.563464400000       6.585066400000       6.050492000000
       124    2        9.440307400000       9.343643400000       7.213742080000
       125    2        7.564879680000      10.963080120000       7.798312000000
       126    2        7.222812760000       8.107839120000       8.915871480000
       127    2        9.021426320000      10.279058680000      10.325738400000
       128    2        9.145830640000       7.295389440000      11.215687880000
       129    3        3.850003480000       5.533002400000       6.965000880000
